# vtk DataFile Version 2.0
results-s.vtk 
ASCII
DATASET UNSTRUCTURED_GRID
POINTS 16512 float
-0.004190 0.005530 0
-0.002289 0.011000 0
0.000877 0.016344 0
0.005251 0.021524 0
0.010778 0.026529 0
0.017415 0.031356 0
0.025127 0.036003 0
0.033882 0.040466 0
0.043650 0.044739 0
0.054402 0.048816 0
0.066109 0.052690 0
0.078740 0.056351 0
0.092265 0.059794 0
0.106652 0.063009 0
0.121870 0.065990 0
0.137885 0.068731 0
0.154664 0.071226 0
0.172172 0.073470 0
0.190375 0.075461 0
0.209237 0.077196 0
0.228722 0.078675 0
0.248792 0.079896 0
0.269410 0.080861 0
0.290538 0.081574 0
0.312136 0.082036 0
0.334165 0.082254 0
0.356584 0.082231 0
0.379352 0.081976 0
0.402427 0.081493 0
0.425766 0.080793 0
0.449325 0.079882 0
0.473060 0.078770 0
0.496925 0.077465 0
0.520873 0.075978 0
0.544857 0.074318 0
0.568828 0.072495 0
0.592735 0.070519 0
0.616527 0.068400 0
0.640153 0.066148 0
0.663559 0.063774 0
0.686690 0.061289 0
0.709492 0.058701 0
0.731907 0.056023 0
0.753878 0.053264 0
0.775348 0.050436 0
0.796257 0.047550 0
0.816546 0.044617 0
0.836156 0.041648 0
0.855026 0.038657 0
0.873098 0.035655 0
0.890311 0.032657 0
0.906607 0.029674 0
0.921926 0.026721 0
0.936211 0.023812 0
0.949405 0.020962 0
0.961451 0.018184 0
0.972294 0.015493 0
0.981880 0.012903 0
0.990156 0.010426 0
0.997066 0.008074 0
1.002555 0.005858 0
1.006565 0.003782 0
1.009029 0.001841 0
1.009866 0.000000 0
1.009029 -0.001841 0
1.006565 -0.003782 0
1.002555 -0.005858 0
0.997066 -0.008074 0
0.990156 -0.010426 0
0.981880 -0.012903 0
0.972294 -0.015493 0
0.961451 -0.018184 0
0.949405 -0.020962 0
0.936211 -0.023812 0
0.921926 -0.026721 0
0.906607 -0.029674 0
0.890311 -0.032657 0
0.873098 -0.035655 0
0.855026 -0.038657 0
0.836156 -0.041648 0
0.816546 -0.044617 0
0.796257 -0.047550 0
0.775348 -0.050436 0
0.753878 -0.053264 0
0.731907 -0.056023 0
0.709492 -0.058701 0
0.686690 -0.061289 0
0.663559 -0.063774 0
0.640153 -0.066148 0
0.616527 -0.068400 0
0.592735 -0.070519 0
0.568828 -0.072495 0
0.544857 -0.074318 0
0.520873 -0.075978 0
0.496925 -0.077465 0
0.473060 -0.078770 0
0.449325 -0.079882 0
0.425766 -0.080793 0
0.402427 -0.081493 0
0.379352 -0.081976 0
0.356584 -0.082231 0
0.334165 -0.082254 0
0.312136 -0.082036 0
0.290538 -0.081574 0
0.269410 -0.080861 0
0.248792 -0.079896 0
0.228722 -0.078675 0
0.209237 -0.077196 0
0.190375 -0.075461 0
0.172172 -0.073470 0
0.154664 -0.071226 0
0.137885 -0.068731 0
0.121870 -0.065990 0
0.106652 -0.063009 0
0.092265 -0.059794 0
0.078740 -0.056351 0
0.066109 -0.052690 0
0.054402 -0.048816 0
0.043650 -0.044739 0
0.033882 -0.040466 0
0.025127 -0.036003 0
0.017415 -0.031356 0
0.010778 -0.026529 0
0.005251 -0.021524 0
0.000877 -0.016344 0
-0.002289 -0.011000 0
-0.004190 -0.005530 0
-0.010119 0.006682 0
-0.008187 0.013300 0
-0.004968 0.019785 0
-0.000520 0.026096 0
0.005098 0.032219 0
0.011841 0.038147 0
0.019674 0.043877 0
0.028566 0.049402 0
0.038488 0.054715 0
0.049410 0.059807 0
0.061302 0.064671 0
0.074135 0.069295 0
0.087878 0.073671 0
0.102498 0.077790 0
0.117962 0.081643 0
0.134238 0.085223 0
0.151290 0.088523 0
0.169082 0.091537 0
0.187580 0.094260 0
0.206746 0.096689 0
0.226542 0.098821 0
0.246929 0.100655 0
0.267870 0.102192 0
0.289323 0.103432 0
0.311249 0.104378 0
0.333605 0.105032 0
0.356351 0.105400 0
0.379443 0.105487 0
0.402837 0.105298 0
0.426490 0.104840 0
0.450356 0.104122 0
0.474388 0.103149 0
0.498541 0.101932 0
0.522765 0.100479 0
0.547012 0.098799 0
0.571232 0.096900 0
0.595373 0.094793 0
0.619384 0.092488 0
0.643212 0.089993 0
0.666801 0.087319 0
0.690098 0.084477 0
0.713046 0.081476 0
0.735588 0.078327 0
0.757666 0.075041 0
0.779222 0.071628 0
0.800198 0.068101 0
0.820533 0.064470 0
0.840168 0.060749 0
0.859045 0.056950 0
0.877103 0.053086 0
0.894284 0.049172 0
0.910529 0.045220 0
0.925781 0.041247 0
0.939982 0.037266 0
0.953076 0.033294 0
0.965009 0.029344 0
0.975728 0.025433 0
0.985180 0.021575 0
0.993313 0.017782 0
1.000077 0.014066 0
1.005422 0.010434 0
1.009297 0.006889 0
1.011652 0.003420 0
1.012443 0.000000 0
1.011652 -0.003420 0
1.009297 -0.006889 0
1.005422 -0.010434 0
1.000077 -0.014066 0
0.993313 -0.017782 0
0.985180 -0.021575 0
0.975728 -0.025433 0
0.965009 -0.029344 0
0.953076 -0.033294 0
0.939982 -0.037266 0
0.925781 -0.041247 0
0.910529 -0.045220 0
0.894284 -0.049172 0
0.877103 -0.053086 0
0.859045 -0.056950 0
0.840168 -0.060749 0
0.820533 -0.064470 0
0.800198 -0.068101 0
0.779222 -0.071628 0
0.757666 -0.075041 0
0.735588 -0.078327 0
0.713046 -0.081476 0
0.690098 -0.084477 0
0.666801 -0.087319 0
0.643212 -0.089993 0
0.619384 -0.092488 0
0.595373 -0.094793 0
0.571232 -0.096900 0
0.547012 -0.098799 0
0.522765 -0.100479 0
0.498541 -0.101932 0
0.474388 -0.103149 0
0.450356 -0.104122 0
0.426490 -0.104840 0
0.402837 -0.105298 0
0.379443 -0.105487 0
0.356351 -0.105400 0
0.333605 -0.105032 0
0.311249 -0.104378 0
0.289323 -0.103432 0
0.267870 -0.102192 0
0.246929 -0.100655 0
0.226542 -0.098821 0
0.206746 -0.096689 0
0.187580 -0.094260 0
0.169082 -0.091537 0
0.151290 -0.088523 0
0.134238 -0.085223 0
0.117962 -0.081643 0
0.102498 -0.077790 0
0.087878 -0.073671 0
0.074135 -0.069295 0
0.061302 -0.064671 0
0.049410 -0.059807 0
0.038488 -0.054715 0
0.028566 -0.049402 0
0.019674 -0.043877 0
0.011841 -0.038147 0
0.005098 -0.032219 0
-0.000520 -0.026096 0
-0.004968 -0.019785 0
-0.008187 -0.013300 0
-0.010119 -0.006682 0
-0.017179 0.007845 0
-0.015211 0.015623 0
-0.011929 0.023262 0
-0.007396 0.030718 0
-0.001673 0.037975 0
0.005193 0.045022 0
0.013166 0.051852 0
0.022216 0.058458 0
0.032313 0.064829 0
0.043429 0.070956 0
0.055533 0.076828 0
0.068595 0.082432 0
0.082584 0.087760 0
0.097466 0.092799 0
0.113209 0.097540 0
0.129778 0.101974 0
0.147137 0.106093 0
0.165250 0.109888 0
0.184079 0.113354 0
0.203587 0.116487 0
0.223734 0.119282 0
0.244480 0.121736 0
0.265785 0.123849 0
0.287607 0.125620 0
0.309905 0.127051 0
0.332634 0.128144 0
0.355753 0.128901 0
0.379216 0.129327 0
0.402979 0.129427 0
0.426994 0.129207 0
0.451217 0.128674 0
0.475598 0.127833 0
0.500090 0.126693 0
0.524643 0.125262 0
0.549207 0.123548 0
0.573730 0.121560 0
0.598160 0.119308 0
0.622445 0.116799 0
0.646529 0.114044 0
0.670358 0.111052 0
0.693876 0.107834 0
0.717026 0.104400 0
0.739751 0.100760 0
0.761992 0.096926 0
0.783691 0.092908 0
0.804788 0.088719 0
0.825225 0.084371 0
0.844941 0.079876 0
0.863878 0.075249 0
0.881977 0.070504 0
0.899179 0.065654 0
0.915425 0.060716 0
0.930660 0.055705 0
0.944828 0.050637 0
0.957872 0.045528 0
0.969742 0.040395 0
0.980383 0.035254 0
0.989747 0.030120 0
0.997786 0.025007 0
1.004451 0.019927 0
1.009700 0.014887 0
1.013488 0.009892 0
1.015780 0.004934 0
1.016548 0.000000 0
1.015780 -0.004934 0
1.013488 -0.009892 0
1.009700 -0.014887 0
1.004451 -0.019927 0
0.997786 -0.025007 0
0.989747 -0.030120 0
0.980383 -0.035254 0
0.969742 -0.040395 0
0.957872 -0.045528 0
0.944828 -0.050637 0
0.930660 -0.055705 0
0.915425 -0.060716 0
0.899179 -0.065654 0
0.881977 -0.070504 0
0.863878 -0.075249 0
0.844941 -0.079876 0
0.825225 -0.084371 0
0.804788 -0.088719 0
0.783691 -0.092908 0
0.761992 -0.096926 0
0.739751 -0.100760 0
0.717026 -0.104400 0
0.693876 -0.107834 0
0.670358 -0.111052 0
0.646529 -0.114044 0
0.622445 -0.116799 0
0.598160 -0.119308 0
0.573730 -0.121560 0
0.549207 -0.123548 0
0.524643 -0.125262 0
0.500090 -0.126693 0
0.475598 -0.127833 0
0.451217 -0.128674 0
0.426994 -0.129207 0
0.402979 -0.129427 0
0.379216 -0.129327 0
0.355753 -0.128901 0
0.332634 -0.128144 0
0.309905 -0.127051 0
0.287607 -0.125620 0
0.265785 -0.123849 0
0.244480 -0.121736 0
0.223734 -0.119282 0
0.203587 -0.116487 0
0.184079 -0.113354 0
0.165250 -0.109888 0
0.147137 -0.106093 0
0.129778 -0.101974 0
0.113209 -0.097540 0
0.097466 -0.092799 0
0.082584 -0.087760 0
0.068595 -0.082432 0
0.055533 -0.076828 0
0.043429 -0.070956 0
0.032313 -0.064829 0
0.022216 -0.058458 0
0.013166 -0.051852 0
0.005193 -0.045022 0
-0.001673 -0.037975 0
-0.007396 -0.030718 0
-0.011929 -0.023262 0
-0.015211 -0.015623 0
-0.017179 -0.007845 0
-0.025388 0.009023 0
-0.023378 0.017977 0
-0.020025 0.026787 0
-0.015395 0.035407 0
-0.009554 0.043816 0
-0.002550 0.052001 0
0.005582 0.059952 0
0.014810 0.067659 0
0.025105 0.075109 0
0.036439 0.082290 0
0.048780 0.089190 0
0.062099 0.095795 0
0.076363 0.102092 0
0.091539 0.108070 0
0.107593 0.113716 0
0.124489 0.119020 0
0.142191 0.123972 0
0.160661 0.128563 0
0.179860 0.132785 0
0.199750 0.136632 0
0.220289 0.140099 0
0.241436 0.143182 0
0.263149 0.145878 0
0.285385 0.148185 0
0.308101 0.150105 0
0.331251 0.151637 0
0.354791 0.152783 0
0.378675 0.153548 0
0.402856 0.153934 0
0.427286 0.153946 0
0.451917 0.153591 0
0.476700 0.152874 0
0.501585 0.151802 0
0.526521 0.150382 0
0.551456 0.148623 0
0.576338 0.146532 0
0.601114 0.144118 0
0.625728 0.141390 0
0.650125 0.138358 0
0.674250 0.135030 0
0.698046 0.131418 0
0.721455 0.127531 0
0.744419 0.123380 0
0.766880 0.118977 0
0.788777 0.114333 0
0.810052 0.109461 0
0.830646 0.104374 0
0.850498 0.099085 0
0.869549 0.093610 0
0.887741 0.087962 0
0.905016 0.082158 0
0.921316 0.076214 0
0.936585 0.070147 0
0.950767 0.063975 0
0.963810 0.057715 0
0.975662 0.051385 0
0.986272 0.045002 0
0.995593 0.038584 0
1.003580 0.032146 0
1.010188 0.025701 0
1.015380 0.019260 0
1.019118 0.012830 0
1.021375 0.006411 0
1.022129 0.000000 0
1.021375 -0.006411 0
1.019118 -0.012830 0
1.015380 -0.019260 0
1.010188 -0.025701 0
1.003580 -0.032146 0
0.995593 -0.038584 0
0.986272 -0.045002 0
0.975662 -0.051385 0
0.963810 -0.057715 0
0.950767 -0.063975 0
0.936585 -0.070147 0
0.921316 -0.076214 0
0.905016 -0.082158 0
0.887741 -0.087962 0
0.869549 -0.093610 0
0.850498 -0.099085 0
0.830646 -0.104374 0
0.810052 -0.109461 0
0.788777 -0.114333 0
0.766880 -0.118977 0
0.744419 -0.123380 0
0.721455 -0.127531 0
0.698046 -0.131418 0
0.674250 -0.135030 0
0.650125 -0.138358 0
0.625728 -0.141390 0
0.601114 -0.144118 0
0.576338 -0.146532 0
0.551456 -0.148623 0
0.526521 -0.150382 0
0.501585 -0.151802 0
0.476700 -0.152874 0
0.451917 -0.153591 0
0.427286 -0.153946 0
0.402856 -0.153934 0
0.378675 -0.153548 0
0.354791 -0.152783 0
[...]
CELL_DATA 16384
VECTORS U float
0.103254 0.156798 0
0.192183 0.291661 0
0.314725 0.383497 0
0.449201 0.416407 0
0.566656 0.417735 0
0.667814 0.402698 0
0.749659 0.377567 0
0.816367 0.347822 0
0.870763 0.317608 0
0.915556 0.288301 0
0.953342 0.260673 0
0.985120 0.234639 0
1.011966 0.210186 0
1.035133 0.187331 0
1.055391 0.165956 0
1.073587 0.145994 0
1.090080 0.127245 0
1.105003 0.109542 0
1.118501 0.092787 0
1.130727 0.076913 0
1.141819 0.061866 0
1.151895 0.047599 0
1.161051 0.034074 0
1.169365 0.021257 0
1.176904 0.009120 0
1.183724 -0.002362 0
1.189876 -0.013208 0
1.195405 -0.023441 0
1.200354 -0.033081 0
1.204760 -0.042147 0
1.208662 -0.050663 0
1.212097 -0.058650 0
1.215090 -0.066134 0
1.217716 -0.073134 0
1.219873 -0.079716 0
1.221831 -0.085762 0
1.223998 -0.091740 0
1.220777 -0.096643 0
1.242540 -0.102837 0
0.831145 -0.066747 0
0.737172 -0.064372 0
0.745048 -0.069972 0
0.739181 -0.072188 0
0.736003 -0.074052 0
0.731489 -0.075541 0
0.726432 -0.076879 0
0.720659 -0.078057 0
0.714256 -0.079087 0
0.707245 -0.079966 0
0.699665 -0.080693 0
0.691512 -0.081259 0
0.682782 -0.081655 0
0.673464 -0.081868 0
0.663524 -0.081878 0
0.652916 -0.081653 0
0.641567 -0.081171 0
0.629347 -0.080373 0
0.616076 -0.079198 0
0.601581 -0.077612 0
0.585462 -0.075412 0
0.567152 -0.072404 0
0.545815 -0.067906 0
0.519777 -0.062143 0
0.501354 -0.033975 0
0.547507 0.045826 0
0.573808 0.068529 0
0.602726 0.076389 0
0.624731 0.081019 0
0.643023 0.083950 0
0.658977 0.085999 0
0.673301 0.087444 0
0.686404 0.088425 0
0.698575 0.089042 0
0.709995 0.089367 0
0.720791 0.089433 0
0.731056 0.089280 0
0.740865 0.088934 0
0.750283 0.088412 0
0.759373 0.087732 0
0.768184 0.086909 0
0.776764 0.085950 0
0.785159 0.084861 0
0.793412 0.083643 0
0.801565 0.082294 0
0.809657 0.080810 0
0.817726 0.079180 0
0.825811 0.077393 0
0.833946 0.075434 0
0.842165 0.073283 0
0.850502 0.070920 0
0.858987 0.068318 0
0.867646 0.065452 0
0.876486 0.062289 0
0.885475 0.058792 0
0.894605 0.054926 0
0.903914 0.050657 0
0.913173 0.045937 0
0.922015 0.040731 0
0.929702 0.035013 0
0.934882 0.028790 0
0.923706 0.021921 0
0.996132 0.015191 0
1.035084 0.004964 0
1.026933 -0.004993 0
1.025583 -0.015684 0
1.019956 -0.026928 0
1.013319 -0.038783 0
1.004993 -0.051250 0
0.995188 -0.064344 0
0.983840 -0.078087 0
0.970862 -0.092501 0
0.956116 -0.107614 0
0.939444 -0.123462 0
0.920681 -0.140106 0
0.899397 -0.157567 0
0.875149 -0.175888 0
0.847426 -0.195104 0
0.815437 -0.215174 0
0.778122 -0.235921 0
0.734104 -0.256992 0
0.681575 -0.277164 0
0.618013 -0.294455 0
0.541087 -0.305842 0
0.451641 -0.307778 0
0.346191 -0.289266 0
0.235288 -0.228503 0
0.134417 -0.123650 0
0.075828 0.007893 0
0.223768 0.133966 0
0.286786 0.232683 0
0.370373 0.308377 0
0.473824 0.353694 0
0.574114 0.369050 0
0.663015 0.366134 0
0.741155 0.352161 0
0.807309 0.331559 0
0.862673 0.307869 0
0.909568 0.282967 0
0.949167 0.257851 0
0.982505 0.233343 0
1.010800 0.209968 0
1.035258 0.187990 0
1.056657 0.167460 0
1.075808 0.148078 0
1.093097 0.129655 0
1.108727 0.112120 0
1.122873 0.095435 0
1.135692 0.079568 0
1.147327 0.064480 0
1.157901 0.050131 0
1.167518 0.036488 0
1.176264 0.023519 0
1.184209 0.011201 0
1.191414 -0.000487 0
1.197930 -0.011562 0
1.203802 -0.022041 0
1.209072 -0.031939 0
1.213779 -0.041274 0
1.217957 -0.050062 0
1.221642 -0.058323 0
1.224861 -0.066075 0
1.227676 -0.073338 0
1.229993 -0.080200 0
1.232146 -0.086347 0
1.234106 -0.093000 0
1.231624 -0.097134 0
1.258338 -0.103435 0
0.841217 -0.069768 0
0.764704 -0.065707 0
0.769183 -0.071736 0
0.763725 -0.073657 0
0.759890 -0.075252 0
0.754721 -0.076402 0
0.748943 -0.077384 0
0.742412 -0.078192 0
0.735194 -0.078837 0
0.727306 -0.079315 0
0.718765 -0.079619 0
0.709571 -0.079731 0
0.699724 -0.079631 0
0.689213 -0.079293 0
0.678039 -0.078674 0
0.666161 -0.077729 0
0.653526 -0.076426 0
0.640073 -0.074717 0
0.625715 -0.072429 0
0.610245 -0.069488 0
0.593359 -0.065551 0
0.574687 -0.059975 0
0.554129 -0.051157 0
0.530467 -0.039426 0
0.528015 -0.008177 0
0.576659 0.021456 0
0.587934 0.047176 0
0.610413 0.060796 0
0.630385 0.069592 0
0.648280 0.074933 0
0.664322 0.078556 0
0.679003 0.081170 0
0.692634 0.083078 0
0.705399 0.084472 0
0.717437 0.085448 0
0.728851 0.086076 0
0.739718 0.086409 0
0.750108 0.086481 0
0.760077 0.086324 0
0.769674 0.085961 0
0.778957 0.085412 0
0.787967 0.084690 0
0.796748 0.083806 0
0.805343 0.082766 0
0.813794 0.081572 0
0.822141 0.080219 0
0.830421 0.078703 0
0.838671 0.077018 0
0.846923 0.075151 0
0.855210 0.073087 0
0.863565 0.070808 0
0.872017 0.068292 0
0.880593 0.065514 0
0.889301 0.062444 0
0.898110 0.059049 0
0.907014 0.055298 0
0.916042 0.051160 0
0.924985 0.046584 0
0.933502 0.041546 0
0.940836 0.036046 0
0.945745 0.030082 0
0.940929 0.023635 0
1.003816 0.019809 0
1.038494 0.008453 0
1.032647 -0.003471 0
1.030679 -0.014226 0
1.024775 -0.025930 0
1.017755 -0.037930 0
1.009015 -0.050505 0
0.998772 -0.063597 0
0.986951 -0.077251 0
0.973471 -0.091471 0
0.958202 -0.106254 0
0.940981 -0.121572 0
0.921689 -0.137391 0
0.899882 -0.153733 0
0.875143 -0.170565 0
0.847023 -0.187786 0
0.814871 -0.205218 0
0.777482 -0.222526 0
0.733765 -0.238938 0
0.682351 -0.253091 0
0.623257 -0.262890 0
0.554066 -0.265463 0
0.474913 -0.255208 0
0.389786 -0.223580 0
0.311609 -0.167612 0
0.244424 -0.087691 0
0.198142 0.017194 0
0.311896 0.108612 0
0.350761 0.182819 0
0.407500 0.243937 0
0.478867 0.287757 0
0.557042 0.313294 0
0.633377 0.322610 0
0.703983 0.319661 0
0.767109 0.308341 0
0.822905 0.291806 0
0.870899 0.272366 0
0.912113 0.251735 0
0.947769 0.230836 0
0.978794 0.210221 0
1.006012 0.190167 0
1.029972 0.170794 0
1.051222 0.152173 0
1.070287 0.134297 0
1.087496 0.117147 0
1.103077 0.100715 0
1.117204 0.084991 0
1.130034 0.069962 0
1.141702 0.055607 0
1.152325 0.041904 0
1.162005 0.028832 0
1.170825 0.016372 0
1.178856 0.004507 0
1.186158 -0.006774 0
1.192782 -0.017486 0
1.198776 -0.027639 0
1.204180 -0.037246 0
1.209034 -0.046320 0
1.213374 -0.054877 0
1.217235 -0.062929 0
1.220664 -0.070490 0
1.223594 -0.077675 0
1.226462 -0.083990 0
1.228435 -0.091339 0
1.228622 -0.094543 0
1.249825 -0.104217 0
0.818202 -0.072886 0
0.764980 -0.067943 0
0.770278 -0.071278 0
0.766844 -0.072678 0
0.763971 -0.073985 0
0.759743 -0.074921 0
0.754862 -0.075700 0
0.749219 -0.076311 0
0.742865 -0.076764 0
0.735803 -0.077046 0
0.728030 -0.077141 0
0.719531 -0.077024 0
0.710283 -0.076661 0
0.700255 -0.076008 0
0.689401 -0.075020 0
0.677685 -0.073625 0
0.665037 -0.071756 0
0.651359 -0.069330 0
0.636598 -0.066142 0
0.620661 -0.061990 0
0.603416 -0.056437 0
0.585042 -0.048679 0
0.566771 -0.037760 0
0.549160 -0.023089 0
0.556481 -0.000436 0
0.605773 0.015322 0
0.606293 0.033119 0
0.621109 0.048248 0
0.637683 0.058780 0
0.654533 0.066197 0
0.670393 0.071347 0
0.685151 0.075057 0
0.698881 0.077799 0
0.711688 0.079845 0
0.723682 0.081338 0
0.734947 0.082380 0
0.745568 0.083040 0
0.755619 0.083376 0
0.765168 0.083431 0
0.774275 0.083239 0
0.783004 0.082827 0
0.791412 0.082217 0
0.799558 0.081423 0
0.807495 0.080455 0
0.815274 0.079321 0
0.822943 0.078022 0
0.830545 0.076557 0
0.838122 0.074920 0
0.845715 0.073100 0
0.853359 0.071086 0
0.861088 0.068861 0
0.868933 0.066407 0
0.876920 0.063699 0
0.885054 0.060710 0
0.893308 0.057410 0
0.901670 0.053770 0
0.910157 0.049762 0
0.918577 0.045340 0
0.926612 0.040493 0
0.933540 0.035260 0
0.938479 0.029874 0
0.936964 0.025307 0
0.992354 0.021211 0
1.025153 0.007940 0
1.020425 -0.003976 0
1.017517 -0.015007 0
1.011110 -0.026747 0
1.003316 -0.038680 0
0.993775 -0.051068 0
0.982646 -0.063846 0
0.969871 -0.077039 0
0.955378 -0.090630 0
0.939052 -0.104593 0
0.920771 -0.118897 0
0.900299 -0.133503 0
0.877315 -0.148324 0
0.851468 -0.163250 0
0.822266 -0.178080 0
0.789024 -0.192441 0
0.751052 -0.205645 0
0.707845 -0.216702 0
0.658802 -0.224114 0
0.603906 -0.225859 0
0.543519 -0.219281 0
0.479819 -0.200638 0
0.418289 -0.167084 0
0.364818 -0.117747 0
0.322014 -0.053990 0
0.299686 0.024935 0
0.384212 0.089013 0
0.407823 0.144444 0
0.445516 0.193876 0
0.495045 0.233909 0
0.552892 0.262510 0
0.614495 0.279081 0
0.675606 0.285048 0
0.733372 0.282389 0
0.786408 0.273505 0
0.834407 0.260332 0
0.877017 0.244483 0
0.914566 0.227324 0
0.947617 0.209412 0
0.976945 0.191325 0
1.002990 0.173366 0
1.026210 0.155787 0
1.047045 0.138708 0
1.065857 0.122160 0
1.082911 0.106159 0
1.098407 0.090723 0
1.112508 0.075861 0
1.125354 0.061578 0
1.137069 0.047870 0
1.147760 0.034728 0
1.157521 0.022144 0
1.166430 0.010109 0
1.174552 -0.001384 0
1.181944 -0.012343 0
1.188656 -0.022773 0
1.194731 -0.032681 0
1.200210 -0.042075 0
1.205129 -0.050963 0
1.209527 -0.059354 0
1.213434 -0.067260 0
1.216821 -0.074785 0
1.220221 -0.081336 0
1.221802 -0.089493 0
1.225292 -0.090991 0
1.242378 -0.104411 0
0.799341 -0.072931 0
0.764820 -0.068894 0
0.770162 -0.071148 0
0.767046 -0.071874 0
0.764224 -0.072766 0
0.760163 -0.073364 0
0.755492 -0.073822 0
0.750164 -0.074127 0
0.744247 -0.074282 0
0.737752 -0.074270 0
0.730673 -0.074068 0
0.722977 -0.073642 0
0.714619 -0.072951 0
0.705537 -0.071942 0
0.695653 -0.070554 0
0.684885 -0.068705 0
0.673148 -0.066292 0
0.660334 -0.063194 0
0.646385 -0.059177 0
0.631313 -0.053961 0
0.615281 -0.047169 0
0.598886 -0.038334 0
0.583754 -0.026842 0
0.569780 -0.014750 0
0.577603 0.002142 0
0.626659 0.013820 0
0.625749 0.025881 0
0.635802 0.037943 0
0.648402 0.048765 0
0.662727 0.057159 0
0.677185 0.063582 0
0.691041 0.068384 0
0.704019 0.071971 0
0.716095 0.074671 0
0.727335 0.076680 0
0.737826 0.078137 0
0.747662 0.079134 0
0.756934 0.079749 0
0.765731 0.080039 0
0.774137 0.080048 0
0.782228 0.079812 0
0.790073 0.079357 0
0.797732 0.078703 0
0.805259 0.077864 0
0.812700 0.076848 0
0.820094 0.075658 0
0.827477 0.074296 0
0.834880 0.072756 0
0.842332 0.071029 0
0.849856 0.069104 0
0.857476 0.066967 0
0.865209 0.064598 0
0.873073 0.061977 0
0.881064 0.059077 0
0.889155 0.055870 0
0.897327 0.052330 0
0.905579 0.048430 0
0.913736 0.044130 0
0.921497 0.039425 0
0.928241 0.034387 0
0.933882 0.029376 0
0.936432 0.025317 0
0.982918 0.021283 0
1.012512 0.007562 0
1.009026 -0.004952 0
1.005457 -0.016245 0
0.998517 -0.028023 0
0.989977 -0.039892 0
0.979650 -0.052084 0
0.967667 -0.064538 0
0.953992 -0.077259 0
0.938566 -0.090204 0
0.921289 -0.103314 0
0.901999 -0.116515 0
0.880468 -0.129759 0
0.856418 -0.142888 0
0.829603 -0.155620 0
0.799597 -0.167622 0
0.766000 -0.178369 0
0.728557 -0.187093 0
0.687091 -0.192765 0
0.641723 -0.193972 0
0.593231 -0.189064 0
0.543090 -0.176209 0
0.494072 -0.153612 0
0.450112 -0.120636 0
0.414220 -0.078329 0
0.388247 -0.028111 0
0.377233 0.029540 0
0.440815 0.075785 0
0.455480 0.118684 0
0.481675 0.157764 0
0.515648 0.192410 0
0.558123 0.220206 0
0.606249 0.240015 0
0.656980 0.251531 0
0.707731 0.255538 0
0.756495 0.253161 0
0.802159 0.245930 0
0.844292 0.235135 0
0.882671 0.221820 0
0.917117 0.206999 0
0.948033 0.191364 0
0.975750 0.175270 0
1.000691 0.159077 0
1.023197 0.143024 0
1.043549 0.127229 0
1.062037 0.111778 0
1.078878 0.096724 0
1.094242 0.082105 0
1.108273 0.067949 0
1.121097 0.054272 0
1.132825 0.041087 0
1.143556 0.028395 0
1.153373 0.016200 0
1.162350 0.004500 0
1.170549 -0.006705 0
1.178021 -0.017415 0
1.184815 -0.027632 0
1.190972 -0.037356 0
1.196531 -0.046593 0
1.201529 -0.055343 0
1.205985 -0.063623 0
1.209918 -0.071490 0
1.213917 -0.078383 0
1.214861 -0.087277 0
1.223551 -0.087217 0
1.223650 -0.110013 0
0.789398 -0.072431 0
0.769137 -0.069650 0
0.772746 -0.071084 0
0.769435 -0.071227 0
0.766304 -0.071653 0
0.762013 -0.071879 0
0.757070 -0.071995 0
0.751494 -0.071971 0
0.745390 -0.071801 0
0.738807 -0.071462 0
0.731776 -0.070924 0
0.724302 -0.070151 0
0.716363 -0.069097 0
0.707910 -0.067702 0
0.698868 -0.065895 0
0.689140 -0.063584 0
0.678627 -0.060649 0
0.667213 -0.056938 0
0.654850 -0.052231 0
0.641609 -0.046326 0
0.627769 -0.039013 0
0.613891 -0.030082 0
0.601303 -0.019865 0
0.588186 -0.010120 0
0.594236 0.003489 0
0.642694 0.013120 0
0.642836 0.021624 0
0.650955 0.031219 0
0.660635 0.040605 0
0.672162 0.049130 0
0.684328 0.056056 0
0.696372 0.061612 0
0.707876 0.065920 0
0.718687 0.069223 0
0.728815 0.071733 0
0.738332 0.073606 0
0.747332 0.074956 0
0.755908 0.075874 0
0.764151 0.076427 0
0.772134 0.076670 0
0.779920 0.076641 0
0.787558 0.076372 0
0.795085 0.075884 0
0.802534 0.075194 0
0.809930 0.074312 0
0.817296 0.073244 0
0.824651 0.071989 0
0.832017 0.070547 0
0.839410 0.068910 0
0.846850 0.067069 0
0.854355 0.065011 0
0.861944 0.062720 0
0.869631 0.060176 0
0.877416 0.057355 0
0.885276 0.054230 0
0.893194 0.050778 0
0.901159 0.046974 0
0.909006 0.042786 0
0.916467 0.038223 0
0.923075 0.033398 0
0.929432 0.028689 0
0.934769 0.024835 0
0.973520 0.020257 0
0.999252 0.006606 0
0.996995 -0.006280 0
0.992815 -0.017745 0
0.985370 -0.029497 0
0.976125 -0.041229 0
0.965054 -0.053146 0
0.952275 -0.065185 0
0.937779 -0.077329 0
0.921524 -0.089515 0
0.903392 -0.101667 0
0.883229 -0.113716 0
0.860896 -0.125451 0
0.836225 -0.136638 0
0.808971 -0.146985 0
0.778944 -0.156063 0
0.746044 -0.163283 0
0.710266 -0.167879 0
0.671869 -0.168881 0
0.631516 -0.165230 0
0.590356 -0.155842 0
0.550112 -0.139747 0
0.513178 -0.116531 0
0.482177 -0.086315 0
0.457405 -0.051152 0
0.441918 -0.010913 0
0.436273 0.032069 0
0.486278 0.066670 0
0.496253 0.100017 0
0.514305 0.131454 0
0.538368 0.160757 0
0.569653 0.186217 0
0.606575 0.206498 0
0.647487 0.220801 0
0.690454 0.229078 0
0.733708 0.231732 0
0.775789 0.229494 0
0.815846 0.223342 0
0.853381 0.214162 0
0.888165 0.202711 0
0.919987 0.189679 0
0.948927 0.175771 0
0.975167 0.161270 0
0.999056 0.146501 0
1.020797 0.131663 0
1.040644 0.116928 0
1.058781 0.102399 0
1.075379 0.088145 0
1.090582 0.074219 0
1.104518 0.060661 0
1.117296 0.047499 0
1.129016 0.034754 0
1.139766 0.022440 0
1.149622 0.010568 0
1.158650 -0.000857 0
1.166907 -0.011827 0
1.174443 -0.022338 0
1.181301 -0.032386 0
1.187522 -0.041969 0
1.193143 -0.051083 0
1.198175 -0.059749 0
1.202702 -0.067942 0
1.207258 -0.075311 0
1.207379 -0.084742 0
1.224111 -0.084360 0
1.179285 -0.116566 0
0.776747 -0.072080 0
0.772384 -0.069737 0
0.773908 -0.070486 0
0.770819 -0.070306 0
0.767751 -0.070345 0
0.763589 -0.070239 0
0.758711 -0.070051 0
0.753151 -0.069736 0
0.747015 -0.069276 0
0.740369 -0.068635 0
0.733273 -0.067776 0
0.725777 -0.066656 0
0.717917 -0.065223 0
0.709711 -0.063418 0
0.701153 -0.061165 0
0.692207 -0.058373 0
0.682821 -0.054927 0
0.672925 -0.050693 0
0.662488 -0.045532 0
0.651535 -0.039365 0
0.640230 -0.032057 0
0.628724 -0.023953 0
0.617678 -0.015220 0
0.604436 -0.007161 0
0.608346 0.004265 0
0.655740 0.012563 0
0.657560 0.018793 0
0.665181 0.026643 0
0.673175 0.034524 0
0.682159 0.042227 0
0.691704 0.049150 0
0.701434 0.054995 0
0.711011 0.059798 0
0.720283 0.063620 0
0.729205 0.066609 0
0.737806 0.068909 0
0.746137 0.070637 0
0.754252 0.071888 0
0.762197 0.072736 0
0.770004 0.073239 0
0.777695 0.073440 0
0.785286 0.073374 0
0.792788 0.073066 0
0.800215 0.072535 0
0.807579 0.071793 0
0.814895 0.070849 0
0.822180 0.069706 0
0.829452 0.068364 0
0.836730 0.066819 0
0.844036 0.065062 0
0.851388 0.063084 0
0.858807 0.060868 0
0.866305 0.058398 0
0.873884 0.055649 0
0.881523 0.052598 0
0.889203 0.049223 0
0.896904 0.045502 0
0.904477 0.041409 0
0.911702 0.036970 0
0.918296 0.032320 0
0.925323 0.027785 0
0.932917 0.023770 0
0.964535 0.018466 0
0.985905 0.005291 0
0.984663 -0.007703 0
0.979951 -0.019263 0
0.972032 -0.030914 0
0.962133 -0.042439 0
0.950379 -0.054003 0
0.936892 -0.065535 0
0.921687 -0.077000 0
0.904703 -0.088320 0
0.885851 -0.099427 0
0.865119 -0.110101 0
0.842374 -0.120149 0
0.817506 -0.129306 0
0.790447 -0.137218 0
0.761194 -0.143426 0
0.729849 -0.147364 0
0.696695 -0.148349 0
0.662297 -0.145669 0
0.627549 -0.138658 0
0.593656 -0.126735 0
0.562140 -0.109602 0
0.534607 -0.087428 0
0.512522 -0.061210 0
0.495738 -0.031805 0
0.486047 0.000221 0
0.482853 0.033275 0
0.523534 0.060103 0
0.530784 0.086473 0
0.543314 0.112321 0
0.561149 0.136605 0
0.584062 0.159078 0
0.612307 0.178323 0
0.644814 0.193535 0
0.680342 0.204202 0
0.717559 0.210275 0
0.755213 0.211979 0
0.792220 0.209790 0
0.827879 0.204359 0
0.861739 0.196322 0
0.893486 0.186251 0
0.923024 0.174644 0
0.950166 0.162034 0
0.975112 0.148827 0
0.997973 0.135210 0
1.018990 0.121409 0
1.038311 0.107570 0
1.056078 0.093818 0
1.072412 0.080239 0
1.087435 0.066898 0
1.101254 0.053844 0
1.113965 0.041114 0
1.125656 0.028738 0
1.136404 0.016737 0
1.146278 0.005129 0
1.155337 -0.006073 0
1.163633 -0.016857 0
1.171211 -0.027213 0
1.178114 -0.037133 0
1.184375 -0.046609 0
1.190013 -0.055661 0
1.195171 -0.064170 0
1.200118 -0.072180 0
1.199756 -0.081872 0
1.224995 -0.080822 0
1.113902 -0.114960 0
0.768545 -0.071585 0
0.771579 -0.069592 0
0.771623 -0.069495 0
0.769089 -0.068971 0
0.766272 -0.068621 0
0.762475 -0.068190 0
0.758005 -0.067717 0
0.752888 -0.067145 0
0.747198 -0.066437 0
0.740970 -0.065546 0
0.734247 -0.064422 0
0.727075 -0.063011 0
0.719512 -0.061255 0
0.711628 -0.059087 0
0.703498 -0.056436 0
0.695197 -0.053220 0
0.686785 -0.049352 0
0.678293 -0.044757 0
0.669712 -0.039400 0
0.661001 -0.033248 0
0.652041 -0.026469 0
0.642484 -0.019313 0
0.632418 -0.011922 0
0.618924 -0.005093 0
0.620791 0.004710 0
0.666724 0.012030 0
0.670444 0.016686 0
0.678066 0.023337 0
0.685018 0.029956 0
0.691982 0.036660 0
0.699073 0.043093 0
0.706429 0.048863 0
0.713984 0.053870 0
0.721673 0.058055 0
0.729439 0.061455 0
0.737241 0.064159 0
0.745050 0.066265 0
0.752841 0.067857 0
0.760589 0.069009 0
0.768273 0.069782 0
0.775878 0.070221 0
0.783394 0.070364 0
0.790819 0.070241 0
0.798158 0.069872 0
0.805424 0.069275 0
0.812630 0.068458 0
0.819796 0.067430 0
0.826941 0.066190 0
0.834085 0.064738 0
0.841248 0.063066 0
0.848448 0.061165 0
0.855702 0.059023 0
0.863022 0.056622 0
0.870405 0.053942 0
0.877835 0.050959 0
0.885290 0.047652 0
0.892743 0.044003 0
0.900067 0.039994 0
0.907108 0.035661 0
0.913766 0.031136 0
0.921337 0.026651 0
0.930467 0.022270 0
0.955757 0.016196 0
0.972760 0.003656 0
0.972110 -0.009186 0
0.966934 -0.020740 0
0.958563 -0.032199 0
0.948083 -0.043422 0
0.935733 -0.054530 0
0.921645 -0.065453 0
0.905829 -0.076141 0
0.888258 -0.086523 0
0.869015 -0.096393 0
0.848019 -0.105591 0
0.825240 -0.113887 0
0.800686 -0.120983 0
0.774423 -0.126519 0
0.746606 -0.130068 0
0.717517 -0.131143 0
0.687632 -0.129244 0
0.657662 -0.123938 0
0.628483 -0.114874 0
0.601129 -0.101865 0
0.576745 -0.085110 0
0.556501 -0.064861 0
0.540390 -0.042458 0
0.529058 -0.017972 0
0.522702 0.007682 0
0.520807 0.033798 0
0.554712 0.055168 0
0.560207 0.076443 0
0.569313 0.097630 0
0.582607 0.117987 0
0.599699 0.137531 0
0.621367 0.155080 0
0.646993 0.169996 0
0.675933 0.181684 0
0.707302 0.189797 0
0.740124 0.194285 0
0.773471 0.195263 0
0.806508 0.193054 0
0.838649 0.188109 0
0.869487 0.180886 0
0.898714 0.171829 0
0.926183 0.161342 0
0.951790 0.149795 0
0.975499 0.137591 0
0.997437 0.124930 0
1.017741 0.111984 0
1.036535 0.098903 0
1.053915 0.085806 0
1.069974 0.072798 0
1.084799 0.059951 0
1.098482 0.047322 0
1.111107 0.034956 0
1.122748 0.022887 0
1.133473 0.011144 0
1.143344 -0.000249 0
1.152412 -0.011274 0
1.160723 -0.021914 0
1.168323 -0.032154 0
1.175238 -0.041981 0
1.181510 -0.051407 0
1.187312 -0.060236 0
1.192384 -0.069056 0
1.192633 -0.078450 0
1.223326 -0.077438 0
1.046705 -0.106847 0
0.769230 -0.071137 0
0.773012 -0.069819 0
0.771146 -0.068749 0
0.768446 -0.067738 0
0.765191 -0.066931 0
0.761148 -0.066124 0
0.756595 -0.065317 0
0.751585 -0.064441 0
0.746173 -0.063448 0
0.740373 -0.062282 0
0.734188 -0.060888 0
0.727619 -0.059203 0
0.720688 -0.057160 0
0.713447 -0.054691 0
0.705993 -0.051725 0
0.698461 -0.048197 0
0.691010 -0.044059 0
0.683770 -0.039303 0
0.676793 -0.033955 0
0.669964 -0.028112 0
0.662912 -0.021971 0
0.654914 -0.015720 0
0.645602 -0.009414 0
0.631958 -0.003533 0
0.631968 0.004975 0
0.676256 0.011354 0
0.681955 0.015151 0
0.689621 0.020835 0
0.695761 0.026446 0
0.701146 0.032219 0
0.706203 0.037940 0
0.711458 0.043413 0
0.717174 0.048366 0
0.723403 0.052719 0
0.730106 0.056407 0
0.737175 0.059448 0
0.744491 0.061895 0
0.751946 0.063812 0
0.759450 0.065262 0
0.766939 0.066303 0