# vtk DataFile Version 2.0
results-128.vtk 
ASCII
DATASET UNSTRUCTURED_GRID
POINTS 16512 float
-0.004190 0.005530 0
-0.002289 0.011000 0
0.000877 0.016344 0
0.005251 0.021524 0
0.010778 0.026529 0
0.017415 0.031356 0
0.025127 0.036003 0
0.033882 0.040466 0
0.043650 0.044739 0
0.054402 0.048816 0
0.066109 0.052690 0
0.078740 0.056351 0
0.092265 0.059794 0
0.106652 0.063009 0
0.121870 0.065990 0
0.137885 0.068731 0
0.154664 0.071226 0
0.172172 0.073470 0
0.190375 0.075461 0
0.209237 0.077196 0
0.228722 0.078675 0
0.248792 0.079896 0
0.269410 0.080861 0
0.290538 0.081574 0
0.312136 0.082036 0
0.334165 0.082254 0
0.356584 0.082231 0
0.379352 0.081976 0
0.402427 0.081493 0
0.425766 0.080793 0
0.449325 0.079882 0
0.473060 0.078770 0
0.496925 0.077465 0
0.520873 0.075978 0
0.544857 0.074318 0
0.568828 0.072495 0
0.592735 0.070519 0
0.616527 0.068400 0
0.640153 0.066148 0
0.663559 0.063774 0
0.686690 0.061289 0
0.709492 0.058701 0
0.731907 0.056023 0
0.753878 0.053264 0
0.775348 0.050436 0
0.796257 0.047550 0
0.816546 0.044617 0
0.836156 0.041648 0
0.855026 0.038657 0
0.873098 0.035655 0
0.890311 0.032657 0
0.906607 0.029674 0
0.921926 0.026721 0
0.936211 0.023812 0
0.949405 0.020962 0
0.961451 0.018184 0
0.972294 0.015493 0
0.981880 0.012903 0
0.990156 0.010426 0
0.997066 0.008074 0
1.002555 0.005858 0
1.006565 0.003782 0
1.009029 0.001841 0
1.009866 0.000000 0
1.009029 -0.001841 0
1.006565 -0.003782 0
1.002555 -0.005858 0
0.997066 -0.008074 0
0.990156 -0.010426 0
0.981880 -0.012903 0
0.972294 -0.015493 0
0.961451 -0.018184 0
0.949405 -0.020962 0
0.936211 -0.023812 0
0.921926 -0.026721 0
0.906607 -0.029674 0
0.890311 -0.032657 0
0.873098 -0.035655 0
0.855026 -0.038657 0
0.836156 -0.041648 0
0.816546 -0.044617 0
0.796257 -0.047550 0
0.775348 -0.050436 0
0.753878 -0.053264 0
0.731907 -0.056023 0
0.709492 -0.058701 0
0.686690 -0.061289 0
0.663559 -0.063774 0
0.640153 -0.066148 0
0.616527 -0.068400 0
0.592735 -0.070519 0
0.568828 -0.072495 0
0.544857 -0.074318 0
0.520873 -0.075978 0
0.496925 -0.077465 0
0.473060 -0.078770 0
0.449325 -0.079882 0
0.425766 -0.080793 0
0.402427 -0.081493 0
0.379352 -0.081976 0
0.356584 -0.082231 0
0.334165 -0.082254 0
0.312136 -0.082036 0
0.290538 -0.081574 0
0.269410 -0.080861 0
0.248792 -0.079896 0
0.228722 -0.078675 0
0.209237 -0.077196 0
0.190375 -0.075461 0
0.172172 -0.073470 0
0.154664 -0.071226 0
0.137885 -0.068731 0
0.121870 -0.065990 0
0.106652 -0.063009 0
0.092265 -0.059794 0
0.078740 -0.056351 0
0.066109 -0.052690 0
0.054402 -0.048816 0
0.043650 -0.044739 0
0.033882 -0.040466 0
0.025127 -0.036003 0
0.017415 -0.031356 0
0.010778 -0.026529 0
0.005251 -0.021524 0
0.000877 -0.016344 0
-0.002289 -0.011000 0
-0.004190 -0.005530 0
-0.010119 0.006682 0
-0.008187 0.013300 0
-0.004968 0.019785 0
-0.000520 0.026096 0
0.005098 0.032219 0
0.011841 0.038147 0
0.019674 0.043877 0
0.028566 0.049402 0
0.038488 0.054715 0
0.049410 0.059807 0
0.061302 0.064671 0
0.074135 0.069295 0
0.087878 0.073671 0
0.102498 0.077790 0
0.117962 0.081643 0
0.134238 0.085223 0
0.151290 0.088523 0
0.169082 0.091537 0
0.187580 0.094260 0
0.206746 0.096689 0
0.226542 0.098821 0
0.246929 0.100655 0
0.267870 0.102192 0
0.289323 0.103432 0
0.311249 0.104378 0
0.333605 0.105032 0
0.356351 0.105400 0
0.379443 0.105487 0
0.402837 0.105298 0
0.426490 0.104840 0
0.450356 0.104122 0
0.474388 0.103149 0
0.498541 0.101932 0
0.522765 0.100479 0
0.547012 0.098799 0
0.571232 0.096900 0
0.595373 0.094793 0
0.619384 0.092488 0
0.643212 0.089993 0
0.666801 0.087319 0
0.690098 0.084477 0
0.713046 0.081476 0
0.735588 0.078327 0
0.757666 0.075041 0
0.779222 0.071628 0
0.800198 0.068101 0
0.820533 0.064470 0
0.840168 0.060749 0
0.859045 0.056950 0
0.877103 0.053086 0
0.894284 0.049172 0
0.910529 0.045220 0
0.925781 0.041247 0
0.939982 0.037266 0
0.953076 0.033294 0
0.965009 0.029344 0
0.975728 0.025433 0
0.985180 0.021575 0
0.993313 0.017782 0
1.000077 0.014066 0
1.005422 0.010434 0
1.009297 0.006889 0
1.011652 0.003420 0
1.012443 0.000000 0
1.011652 -0.003420 0
1.009297 -0.006889 0
1.005422 -0.010434 0
1.000077 -0.014066 0
0.993313 -0.017782 0
0.985180 -0.021575 0
0.975728 -0.025433 0
0.965009 -0.029344 0
0.953076 -0.033294 0
0.939982 -0.037266 0
0.925781 -0.041247 0
0.910529 -0.045220 0
0.894284 -0.049172 0
0.877103 -0.053086 0
0.859045 -0.056950 0
0.840168 -0.060749 0
0.820533 -0.064470 0
0.800198 -0.068101 0
0.779222 -0.071628 0
0.757666 -0.075041 0
0.735588 -0.078327 0
0.713046 -0.081476 0
0.690098 -0.084477 0
0.666801 -0.087319 0
0.643212 -0.089993 0
0.619384 -0.092488 0
0.595373 -0.094793 0
0.571232 -0.096900 0
0.547012 -0.098799 0
0.522765 -0.100479 0
0.498541 -0.101932 0
0.474388 -0.103149 0
0.450356 -0.104122 0
0.426490 -0.104840 0
0.402837 -0.105298 0
0.379443 -0.105487 0
0.356351 -0.105400 0
0.333605 -0.105032 0
0.311249 -0.104378 0
0.289323 -0.103432 0
0.267870 -0.102192 0
0.246929 -0.100655 0
0.226542 -0.098821 0
0.206746 -0.096689 0
0.187580 -0.094260 0
0.169082 -0.091537 0
0.151290 -0.088523 0
0.134238 -0.085223 0
0.117962 -0.081643 0
0.102498 -0.077790 0
0.087878 -0.073671 0
0.074135 -0.069295 0
0.061302 -0.064671 0
0.049410 -0.059807 0
0.038488 -0.054715 0
0.028566 -0.049402 0
0.019674 -0.043877 0
0.011841 -0.038147 0
0.005098 -0.032219 0
-0.000520 -0.026096 0
-0.004968 -0.019785 0
-0.008187 -0.013300 0
-0.010119 -0.006682 0
-0.017179 0.007845 0
-0.015211 0.015623 0
-0.011929 0.023262 0
-0.007396 0.030718 0
-0.001673 0.037975 0
0.005193 0.045022 0
0.013166 0.051852 0
0.022216 0.058458 0
0.032313 0.064829 0
0.043429 0.070956 0
0.055533 0.076828 0
0.068595 0.082432 0
0.082584 0.087760 0
0.097466 0.092799 0
0.113209 0.097540 0
0.129778 0.101974 0
0.147137 0.106093 0
0.165250 0.109888 0
0.184079 0.113354 0
0.203587 0.116487 0
0.223734 0.119282 0
0.244480 0.121736 0
0.265785 0.123849 0
0.287607 0.125620 0
0.309905 0.127051 0
0.332634 0.128144 0
0.355753 0.128901 0
0.379216 0.129327 0
0.402979 0.129427 0
0.426994 0.129207 0
0.451217 0.128674 0
0.475598 0.127833 0
0.500090 0.126693 0
0.524643 0.125262 0
0.549207 0.123548 0
0.573730 0.121560 0
0.598160 0.119308 0
0.622445 0.116799 0
0.646529 0.114044 0
0.670358 0.111052 0
0.693876 0.107834 0
0.717026 0.104400 0
0.739751 0.100760 0
0.761992 0.096926 0
0.783691 0.092908 0
0.804788 0.088719 0
0.825225 0.084371 0
0.844941 0.079876 0
0.863878 0.075249 0
0.881977 0.070504 0
0.899179 0.065654 0
0.915425 0.060716 0
0.930660 0.055705 0
0.944828 0.050637 0
0.957872 0.045528 0
0.969742 0.040395 0
0.980383 0.035254 0
0.989747 0.030120 0
0.997786 0.025007 0
1.004451 0.019927 0
1.009700 0.014887 0
1.013488 0.009892 0
1.015780 0.004934 0
1.016548 0.000000 0
1.015780 -0.004934 0
1.013488 -0.009892 0
1.009700 -0.014887 0
1.004451 -0.019927 0
0.997786 -0.025007 0
0.989747 -0.030120 0
0.980383 -0.035254 0
0.969742 -0.040395 0
0.957872 -0.045528 0
0.944828 -0.050637 0
0.930660 -0.055705 0
0.915425 -0.060716 0
0.899179 -0.065654 0
0.881977 -0.070504 0
0.863878 -0.075249 0
0.844941 -0.079876 0
0.825225 -0.084371 0
0.804788 -0.088719 0
0.783691 -0.092908 0
0.761992 -0.096926 0
0.739751 -0.100760 0
0.717026 -0.104400 0
0.693876 -0.107834 0
0.670358 -0.111052 0
0.646529 -0.114044 0
0.622445 -0.116799 0
0.598160 -0.119308 0
0.573730 -0.121560 0
0.549207 -0.123548 0
0.524643 -0.125262 0
0.500090 -0.126693 0
0.475598 -0.127833 0
0.451217 -0.128674 0
0.426994 -0.129207 0
0.402979 -0.129427 0
0.379216 -0.129327 0
0.355753 -0.128901 0
0.332634 -0.128144 0
0.309905 -0.127051 0
0.287607 -0.125620 0
0.265785 -0.123849 0
0.244480 -0.121736 0
0.223734 -0.119282 0
0.203587 -0.116487 0
0.184079 -0.113354 0
0.165250 -0.109888 0
0.147137 -0.106093 0
0.129778 -0.101974 0
0.113209 -0.097540 0
0.097466 -0.092799 0
0.082584 -0.087760 0
0.068595 -0.082432 0
0.055533 -0.076828 0
0.043429 -0.070956 0
0.032313 -0.064829 0
0.022216 -0.058458 0
0.013166 -0.051852 0
0.005193 -0.045022 0
-0.001673 -0.037975 0
-0.007396 -0.030718 0
-0.011929 -0.023262 0
-0.015211 -0.015623 0
-0.017179 -0.007845 0
-0.025388 0.009023 0
-0.023378 0.017977 0
-0.020025 0.026787 0
-0.015395 0.035407 0
-0.009554 0.043816 0
-0.002550 0.052001 0
0.005582 0.059952 0
0.014810 0.067659 0
0.025105 0.075109 0
0.036439 0.082290 0
0.048780 0.089190 0
0.062099 0.095795 0
0.076363 0.102092 0
0.091539 0.108070 0
0.107593 0.113716 0
0.124489 0.119020 0
0.142191 0.123972 0
0.160661 0.128563 0
0.179860 0.132785 0
0.199750 0.136632 0
0.220289 0.140099 0
0.241436 0.143182 0
0.263149 0.145878 0
0.285385 0.148185 0
0.308101 0.150105 0
0.331251 0.151637 0
0.354791 0.152783 0
0.378675 0.153548 0
0.402856 0.153934 0
0.427286 0.153946 0
0.451917 0.153591 0
0.476700 0.152874 0
0.501585 0.151802 0
0.526521 0.150382 0
0.551456 0.148623 0
0.576338 0.146532 0
0.601114 0.144118 0
0.625728 0.141390 0
0.650125 0.138358 0
0.674250 0.135030 0
0.698046 0.131418 0
0.721455 0.127531 0
0.744419 0.123380 0
0.766880 0.118977 0
0.788777 0.114333 0
0.810052 0.109461 0
0.830646 0.104374 0
0.850498 0.099085 0
0.869549 0.093610 0
0.887741 0.087962 0
0.905016 0.082158 0
0.921316 0.076214 0
0.936585 0.070147 0
0.950767 0.063975 0
0.963810 0.057715 0
0.975662 0.051385 0
0.986272 0.045002 0
0.995593 0.038584 0
1.003580 0.032146 0
1.010188 0.025701 0
1.015380 0.019260 0
1.019118 0.012830 0
1.021375 0.006411 0
1.022129 0.000000 0
1.021375 -0.006411 0
1.019118 -0.012830 0
1.015380 -0.019260 0
1.010188 -0.025701 0
1.003580 -0.032146 0
0.995593 -0.038584 0
0.986272 -0.045002 0
0.975662 -0.051385 0
0.963810 -0.057715 0
0.950767 -0.063975 0
0.936585 -0.070147 0
0.921316 -0.076214 0
0.905016 -0.082158 0
0.887741 -0.087962 0
0.869549 -0.093610 0
0.850498 -0.099085 0
0.830646 -0.104374 0
0.810052 -0.109461 0
0.788777 -0.114333 0
0.766880 -0.118977 0
0.744419 -0.123380 0
0.721455 -0.127531 0
0.698046 -0.131418 0
0.674250 -0.135030 0
0.650125 -0.138358 0
0.625728 -0.141390 0
0.601114 -0.144118 0
0.576338 -0.146532 0
0.551456 -0.148623 0
0.526521 -0.150382 0
0.501585 -0.151802 0
0.476700 -0.152874 0
0.451917 -0.153591 0
0.427286 -0.153946 0
0.402856 -0.153934 0
0.378675 -0.153548 0
0.354791 -0.152783 0
[...]
CELL_DATA 16384
VECTORS U float
0.104793 0.157714 0
0.193030 0.292624 0
0.315056 0.384511 0
0.449547 0.417003 0
0.566790 0.417930 0
0.667877 0.402653 0
0.749664 0.377375 0
0.816317 0.347553 0
0.870662 0.317332 0
0.915380 0.288037 0
0.953080 0.260426 0
0.984776 0.234413 0
1.011560 0.209984 0
1.034695 0.187153 0
1.054939 0.165799 0
1.073157 0.145858 0
1.089686 0.127123 0
1.104646 0.109432 0
1.118179 0.092687 0
1.130435 0.076822 0
1.141556 0.061783 0
1.151658 0.047524 0
1.160838 0.034006 0
1.169175 0.021196 0
1.176734 0.009064 0
1.183574 -0.002411 0
1.189744 -0.013253 0
1.195290 -0.023481 0
1.200254 -0.033117 0
1.204675 -0.042180 0
1.208591 -0.050692 0
1.212039 -0.058676 0
1.215044 -0.066157 0
1.217680 -0.073156 0
1.219848 -0.079736 0
1.221814 -0.085781 0
1.223998 -0.091755 0
1.220751 -0.096659 0
1.242637 -0.102850 0
0.831644 -0.066830 0
0.737217 -0.064397 0
0.745101 -0.069988 0
0.739246 -0.072201 0
0.736080 -0.074065 0
0.731574 -0.075555 0
0.726526 -0.076894 0
0.720760 -0.078074 0
0.714365 -0.079105 0
0.707364 -0.079986 0
0.699793 -0.080714 0
0.691649 -0.081282 0
0.682929 -0.081681 0
0.673621 -0.081896 0
0.663690 -0.081908 0
0.653093 -0.081684 0
0.641754 -0.081204 0
0.629542 -0.080407 0
0.616279 -0.079236 0
0.601795 -0.077651 0
0.585681 -0.075454 0
0.567375 -0.072448 0
0.546033 -0.067952 0
0.519964 -0.062182 0
0.501447 -0.034226 0
0.547742 0.045998 0
0.574124 0.068586 0
0.603081 0.076452 0
0.625097 0.081081 0
0.643391 0.084011 0
0.659345 0.086058 0
0.673664 0.087501 0
0.686764 0.088482 0
0.698929 0.089096 0
0.710341 0.089419 0
0.721131 0.089484 0
0.731390 0.089329 0
0.741192 0.088981 0
0.750604 0.088457 0
0.759686 0.087776 0
0.768489 0.086950 0
0.777062 0.085990 0
0.785450 0.084899 0
0.793694 0.083679 0
0.801839 0.082329 0
0.809923 0.080843 0
0.817983 0.079211 0
0.826056 0.077423 0
0.834178 0.075461 0
0.842380 0.073308 0
0.850691 0.070942 0
0.859136 0.068337 0
0.867738 0.065466 0
0.876512 0.062299 0
0.885465 0.058801 0
0.894588 0.054936 0
0.903845 0.050666 0
0.913137 0.045949 0
0.922287 0.040755 0
0.930286 0.035042 0
0.935278 0.028807 0
0.923770 0.021933 0
0.996463 0.015215 0
1.035195 0.004988 0
1.027090 -0.004973 0
1.025715 -0.015663 0
1.020073 -0.026906 0
1.013433 -0.038761 0
1.005100 -0.051228 0
0.995290 -0.064322 0
0.983936 -0.078065 0
0.970955 -0.092479 0
0.956207 -0.107592 0
0.939535 -0.123440 0
0.920774 -0.140083 0
0.899493 -0.157543 0
0.875253 -0.175864 0
0.847543 -0.195083 0
0.815581 -0.215163 0
0.778290 -0.235926 0
0.734303 -0.257027 0
0.681803 -0.277247 0
0.618285 -0.294622 0
0.541408 -0.306125 0
0.452067 -0.308210 0
0.346675 -0.289961 0
0.236036 -0.229176 0
0.135593 -0.124248 0
0.078354 0.008138 0
0.224039 0.133719 0
0.286744 0.232302 0
0.370014 0.308126 0
0.473522 0.353624 0
0.573861 0.369058 0
0.662883 0.366201 0
0.741085 0.352226 0
0.807279 0.331597 0
0.862631 0.307886 0
0.909520 0.282956 0
0.949082 0.257833 0
0.982381 0.233333 0
1.010647 0.209970 0
1.035096 0.188006 0
1.056498 0.167487 0
1.075672 0.148107 0
1.092992 0.129679 0
1.108653 0.112135 0
1.122825 0.095441 0
1.135663 0.079567 0
1.147312 0.064472 0
1.157896 0.050120 0
1.167520 0.036473 0
1.176270 0.023501 0
1.184219 0.011181 0
1.191425 -0.000508 0
1.197941 -0.011583 0
1.203813 -0.022063 0
1.209083 -0.031961 0
1.213789 -0.041295 0
1.217966 -0.050083 0
1.221650 -0.058343 0
1.224867 -0.066095 0
1.227681 -0.073357 0
1.229998 -0.080217 0
1.232149 -0.086364 0
1.234115 -0.093015 0
1.231593 -0.097154 0
1.258455 -0.103452 0
0.841688 -0.069845 0
0.764674 -0.065730 0
0.769157 -0.071754 0
0.763703 -0.073673 0
0.759872 -0.075266 0
0.754706 -0.076416 0
0.748931 -0.077399 0
0.742402 -0.078207 0
0.735188 -0.078853 0
0.727305 -0.079331 0
0.718770 -0.079637 0
0.709583 -0.079750 0
0.699745 -0.079651 0
0.689245 -0.079314 0
0.678085 -0.078695 0
0.666219 -0.077752 0
0.653599 -0.076452 0
0.640164 -0.074746 0
0.625824 -0.072458 0
0.610373 -0.069523 0
0.593507 -0.065587 0
0.574856 -0.060013 0
0.554316 -0.051198 0
0.530676 -0.039458 0
0.528230 -0.008212 0
0.577017 0.021490 0
0.588267 0.047215 0
0.610738 0.060850 0
0.630699 0.069648 0
0.648580 0.074988 0
0.664604 0.078610 0
0.679264 0.081222 0
0.692875 0.083128 0
0.705620 0.084516 0
0.717638 0.085489 0
0.729034 0.086115 0
0.739885 0.086444 0
0.750259 0.086514 0
0.760214 0.086354 0
0.769800 0.085989 0
0.779067 0.085438 0
0.788066 0.084714 0
0.796837 0.083829 0
0.805423 0.082788 0
0.813864 0.081591 0
0.822203 0.080237 0
0.830475 0.078720 0
0.838715 0.077034 0
0.846955 0.075165 0
0.855228 0.073100 0
0.863560 0.070818 0
0.871978 0.068299 0
0.880504 0.065518 0
0.889152 0.062446 0
0.897931 0.059054 0
0.906831 0.055308 0
0.915818 0.051172 0
0.924804 0.046610 0
0.933614 0.041598 0
0.941244 0.036095 0
0.945995 0.030101 0
0.940825 0.023651 0
1.004008 0.019830 0
1.038510 0.008461 0
1.032705 -0.003458 0
1.030714 -0.014216 0
1.024804 -0.025921 0
1.017783 -0.037921 0
1.009039 -0.050498 0
0.998793 -0.063592 0
0.986968 -0.077248 0
0.973482 -0.091470 0
0.958208 -0.106254 0
0.940981 -0.121572 0
0.921678 -0.137394 0
0.899865 -0.153734 0
0.875121 -0.170563 0
0.847007 -0.187782 0
0.814860 -0.205216 0
0.777471 -0.222530 0
0.733751 -0.238951 0
0.682318 -0.253111 0
0.623196 -0.262912 0
0.553953 -0.265477 0
0.474769 -0.255226 0
0.389527 -0.223516 0
0.311530 -0.167379 0
0.244458 -0.087456 0
0.198997 0.017290 0
0.312110 0.108407 0
0.350791 0.182563 0
0.407341 0.243753 0
0.478695 0.287687 0
0.556893 0.313284 0
0.633290 0.322634 0
0.703947 0.319685 0
0.767105 0.308347 0
0.822916 0.291790 0
0.870886 0.272337 0
0.912069 0.251704 0
0.947688 0.230813 0
0.978679 0.210212 0
1.005882 0.190174 0
1.029839 0.170815 0
1.051104 0.152202 0
1.070195 0.134327 0
1.087435 0.117171 0
1.103044 0.100731 0
1.117196 0.084998 0
1.130043 0.069961 0
1.141724 0.055600 0
1.152356 0.041891 0
1.162041 0.028815 0
1.170865 0.016352 0
1.178898 0.004485 0
1.186201 -0.006798 0
1.192826 -0.017510 0
1.198819 -0.027664 0
1.204222 -0.037271 0
1.209075 -0.046345 0
1.213414 -0.054900 0
1.217273 -0.062952 0
1.220701 -0.070513 0
1.223630 -0.077696 0
1.226496 -0.084010 0
1.228475 -0.091356 0
1.228619 -0.094571 0
1.249938 -0.104220 0
0.818662 -0.072951 0
0.764988 -0.067973 0
0.770268 -0.071301 0
0.766830 -0.072698 0
0.763955 -0.074002 0
0.759724 -0.074938 0
0.754840 -0.075716 0
0.749195 -0.076328 0
0.742838 -0.076781 0
0.735775 -0.077063 0
0.728002 -0.077159 0
0.719502 -0.077042 0
0.710256 -0.076679 0
0.700231 -0.076027 0
0.689383 -0.075039 0
0.677675 -0.073645 0
0.665038 -0.071776 0
0.651372 -0.069353 0
0.636628 -0.066163 0
0.620710 -0.062017 0
0.603487 -0.056464 0
0.585141 -0.048708 0
0.566900 -0.037786 0
0.549325 -0.023104 0
0.556696 -0.000428 0
0.606142 0.015339 0
0.606601 0.033142 0
0.621381 0.048290 0
0.637925 0.058826 0
0.654745 0.066244 0
0.670575 0.071392 0
0.685302 0.075100 0
0.699008 0.077840 0
0.711795 0.079880 0
0.723769 0.081370 0
0.735019 0.082410 0
0.745626 0.083069 0
0.755667 0.083404 0
0.765207 0.083457 0
0.774309 0.083264 0
0.783033 0.082851 0
0.791439 0.082239 0
0.799583 0.081444 0
0.807519 0.080476 0
0.815298 0.079341 0
0.822966 0.078041 0
0.830568 0.076575 0
0.838144 0.074937 0
0.845733 0.073116 0
0.853369 0.071100 0
0.861082 0.068873 0
0.868899 0.066415 0
0.876841 0.063703 0
0.884923 0.060714 0
0.893150 0.057418 0
0.901510 0.053784 0
0.909968 0.049781 0
0.918438 0.045375 0
0.926748 0.040545 0
0.933947 0.035296 0
0.938752 0.029874 0
0.936938 0.025315 0
0.992561 0.021234 0
1.025200 0.007947 0
1.020512 -0.003966 0
1.017583 -0.015000 0
1.011171 -0.026740 0
1.003374 -0.038674 0
0.993829 -0.051064 0
0.982697 -0.063843 0
0.969917 -0.077039 0
0.955419 -0.090631 0
0.939089 -0.104595 0
0.920802 -0.118901 0
0.900325 -0.133506 0
0.877337 -0.148326 0
0.851491 -0.163250 0
0.822294 -0.178081 0
0.789054 -0.192447 0
0.751081 -0.205657 0
0.707866 -0.216722 0
0.658806 -0.224140 0
0.603886 -0.225887 0
0.543462 -0.219300 0
0.479723 -0.200630 0
0.418178 -0.166997 0
0.364845 -0.117602 0
0.322122 -0.053855 0
0.300167 0.024954 0
0.384327 0.088903 0
0.407858 0.144299 0
0.445456 0.193744 0
0.494948 0.233830 0
0.552789 0.262476 0
0.614417 0.279079 0
0.675557 0.285059 0
0.733348 0.282397 0
0.786392 0.273503 0
0.834385 0.260320 0
0.876976 0.244467 0
0.914496 0.227309 0
0.947517 0.209407 0
0.976825 0.191333 0
1.002861 0.173389 0
1.026084 0.155819 0
1.046935 0.138746 0
1.065772 0.122195 0
1.082853 0.106188 0
1.098375 0.090743 0
1.112497 0.075873 0
1.125359 0.061581 0
1.137085 0.047866 0
1.147785 0.034719 0
1.157551 0.022131 0
1.166463 0.010093 0
1.174588 -0.001403 0
1.181981 -0.012364 0
1.188693 -0.022795 0
1.194768 -0.032704 0
1.200246 -0.042097 0
1.205165 -0.050985 0
1.209562 -0.059375 0
1.213468 -0.067281 0
1.216854 -0.074805 0
1.220252 -0.081356 0
1.221838 -0.089510 0
1.225286 -0.091024 0
1.242518 -0.104353 0
0.799589 -0.072985 0
0.764835 -0.068923 0
0.770156 -0.071172 0
0.767033 -0.071895 0
0.764208 -0.072786 0
0.760144 -0.073383 0
0.755471 -0.073841 0
0.750140 -0.074146 0
0.744220 -0.074302 0
0.737722 -0.074290 0
0.730640 -0.074088 0
0.722942 -0.073662 0
0.714582 -0.072970 0
0.705498 -0.071961 0
0.695614 -0.070574 0
0.684847 -0.068724 0
0.673114 -0.066313 0
0.660306 -0.063215 0
0.646369 -0.059197 0
0.631311 -0.053982 0
0.615299 -0.047189 0
0.598932 -0.038353 0
0.583842 -0.026854 0
0.569926 -0.014752 0
0.577833 0.002162 0
0.627039 0.013836 0
0.626043 0.025897 0
0.636032 0.037970 0
0.648580 0.048798 0
0.662861 0.057195 0
0.677284 0.063618 0
0.691112 0.068420 0
0.704069 0.072006 0
0.716130 0.074702 0
0.727357 0.076710 0
0.737840 0.078165 0
0.747671 0.079161 0
0.756942 0.079775 0
0.765740 0.080064 0
0.774148 0.080073 0
0.782242 0.079836 0
0.790091 0.079380 0
0.797755 0.078725 0
0.805285 0.077885 0
0.812728 0.076868 0
0.820124 0.075678 0
0.827508 0.074315 0
0.834911 0.072773 0
0.842359 0.071045 0
0.849875 0.069118 0
0.857478 0.066977 0
0.865184 0.064606 0
0.873004 0.061982 0
0.880946 0.059082 0
0.889009 0.055880 0
0.897175 0.052348 0
0.905408 0.048456 0
0.913616 0.044175 0
0.921621 0.039484 0
0.928600 0.034425 0
0.934144 0.029373 0
0.936389 0.025323 0
0.983092 0.021303 0
1.012557 0.007565 0
1.009101 -0.004944 0
1.005515 -0.016241 0
0.998568 -0.028018 0
0.990025 -0.039888 0
0.979694 -0.052082 0
0.967707 -0.064538 0
0.954027 -0.077261 0
0.938596 -0.090207 0
0.921315 -0.103318 0
0.902020 -0.116520 0
0.880485 -0.129763 0
0.856434 -0.142891 0
0.829621 -0.155623 0
0.799618 -0.167627 0
0.766022 -0.178377 0
0.728576 -0.187106 0
0.687102 -0.192782 0
0.641722 -0.193991 0
0.593214 -0.189079 0
0.543054 -0.176212 0
0.494026 -0.153590 0
0.450072 -0.120571 0
0.414240 -0.078247 0
0.388320 -0.028034 0
0.377476 0.029545 0
0.440887 0.075722 0
0.455516 0.118599 0
0.481662 0.157678 0
0.515602 0.192344 0
0.558061 0.220163 0
0.606192 0.239996 0
0.656935 0.251525 0
0.707701 0.255535 0
0.756473 0.253155 0
0.802136 0.245919 0
0.844260 0.235120 0
0.882619 0.221804 0
0.917041 0.206989 0
0.947937 0.191365 0
0.975640 0.175282 0
1.000576 0.159101 0
1.023089 0.143055 0
1.043458 0.127263 0
1.061969 0.111810 0
1.078834 0.096750 0
1.094220 0.082123 0
1.108269 0.067959 0
1.121107 0.054275 0
1.132846 0.041083 0
1.143584 0.028386 0
1.153406 0.016187 0
1.162387 0.004484 0
1.170587 -0.006724 0
1.178060 -0.017435 0
1.184855 -0.027653 0
1.191011 -0.037378 0
1.196570 -0.046614 0
1.201567 -0.055364 0
1.206022 -0.063644 0
1.209954 -0.071510 0
1.213951 -0.078402 0
1.214901 -0.087295 0
1.223535 -0.087237 0
1.224034 -0.109938 0
0.790011 -0.072510 0
0.769125 -0.069674 0
0.772730 -0.071109 0
0.769410 -0.071249 0
0.766274 -0.071675 0
0.761980 -0.071900 0
0.757036 -0.072016 0
0.751459 -0.071992 0
0.745354 -0.071822 0
0.738769 -0.071483 0
0.731737 -0.070945 0
0.724262 -0.070173 0
0.716320 -0.069118 0
0.707865 -0.067723 0
0.698821 -0.065916 0
0.689091 -0.063604 0
0.678577 -0.060668 0
0.667164 -0.056958 0
0.654806 -0.052249 0
0.641575 -0.046342 0
0.627751 -0.039027 0
0.613901 -0.030090 0
0.601358 -0.019867 0
0.588313 -0.010117 0
0.594469 0.003513 0
0.643069 0.013135 0
0.643112 0.021636 0
0.651148 0.031235 0
0.660759 0.040627 0
0.672236 0.049157 0
0.684368 0.056085 0
0.696388 0.061642 0
0.707879 0.065950 0
0.718682 0.069252 0
0.728807 0.071761 0
0.738325 0.073633 0
0.747327 0.074983 0
0.755909 0.075900 0
0.764158 0.076453 0
0.772147 0.076695 0
0.779939 0.076666 0
0.787581 0.076396 0
0.795113 0.075908 0
0.802564 0.075217 0
0.809962 0.074334 0
0.817329 0.073264 0
0.824684 0.072009 0
0.832047 0.070565 0
0.839435 0.068926 0
0.846866 0.067082 0
0.854355 0.065021 0
0.861916 0.062727 0
0.869563 0.060180 0
0.877302 0.057360 0
0.885134 0.054242 0
0.893046 0.050799 0
0.900999 0.047005 0
0.908902 0.042836 0
0.916573 0.038285 0
0.923384 0.033435 0
0.929678 0.028686 0
0.934823 0.024832 0
0.973669 0.020274 0
0.999306 0.006606 0
0.997066 -0.006273 0
0.992872 -0.017742 0
0.985420 -0.029494 0
0.976172 -0.041227 0
0.965096 -0.053146 0
0.952311 -0.065186 0
0.937811 -0.077331 0
0.921552 -0.089519 0
0.903416 -0.101671 0
0.883249 -0.113720 0
0.860914 -0.125454 0
0.836242 -0.136641 0
0.808988 -0.146988 0
0.778962 -0.156068 0
0.746060 -0.163291 0
0.710279 -0.167889 0
0.671875 -0.168892 0
0.631513 -0.165240 0
0.590344 -0.155846 0
0.550094 -0.139740 0
0.513164 -0.116508 0
0.482181 -0.086276 0
0.457435 -0.051110 0
0.441977 -0.010878 0
0.436404 0.032063 0
0.486327 0.066631 0
0.496285 0.099965 0
0.514307 0.131397 0
0.538351 0.160705 0
0.569620 0.186177 0
0.606537 0.206472 0
0.647451 0.220786 0
0.690425 0.229069 0
0.733683 0.231724 0
0.775766 0.229484 0
0.815817 0.223329 0
0.853340 0.214149 0
0.888108 0.202700 0
0.919912 0.189675 0
0.948836 0.175776 0
0.975067 0.161285 0
0.998955 0.146526 0
1.020705 0.131694 0
1.040568 0.116960 0
1.058726 0.102428 0
1.075344 0.088169 0
1.090567 0.074236 0
1.104518 0.060670 0
1.117309 0.047501 0
1.129038 0.034750 0
1.139795 0.022432 0
1.149655 0.010555 0
1.158685 -0.000872 0
1.166944 -0.011845 0
1.174481 -0.022357 0
1.181340 -0.032406 0
1.187560 -0.041989 0
1.193181 -0.051104 0
1.198212 -0.059769 0
1.202739 -0.067962 0
1.207293 -0.075329 0
1.207420 -0.084761 0
1.224084 -0.084382 0
1.179853 -0.116556 0
0.776890 -0.072101 0
0.772446 -0.069761 0
0.773971 -0.070519 0
0.770862 -0.070338 0
0.767779 -0.070376 0
0.763603 -0.070269 0
0.758714 -0.070080 0
0.753144 -0.069765 0
0.746999 -0.069304 0
0.740346 -0.068662 0
0.733244 -0.067803 0
0.725743 -0.066682 0
0.717878 -0.065248 0
0.709668 -0.063441 0
0.701105 -0.061188 0
0.692155 -0.058395 0
0.682765 -0.054947 0
0.672867 -0.050712 0
0.662430 -0.045548 0
0.651482 -0.039379 0
0.640191 -0.032066 0
0.628710 -0.023958 0
0.617709 -0.015217 0
0.604542 -0.007154 0
0.608575 0.004291 0
0.656107 0.012576 0
0.657813 0.018805 0
0.665337 0.026655 0
0.673257 0.034538 0
0.682190 0.042247 0
0.691703 0.049174 0
0.701417 0.055021 0
0.710988 0.059825 0
0.720260 0.063648 0
0.729186 0.066637 0
0.737794 0.068937 0
0.746133 0.070665 0
0.754256 0.071916 0
0.762208 0.072764 0
0.770021 0.073266 0
0.777717 0.073466 0
0.785311 0.073399 0
0.792817 0.073090 0
0.800245 0.072558 0
0.807610 0.071815 0
0.814926 0.070870 0
0.822210 0.069726 0
0.829479 0.068382 0
0.836753 0.066834 0
0.844050 0.065075 0
0.851387 0.063094 0
0.858780 0.060875 0
0.866241 0.058403 0
0.873778 0.055656 0
0.881391 0.052613 0
0.889064 0.049248 0
0.896761 0.045537 0
0.904391 0.041462 0
0.911794 0.037033 0
0.918555 0.032358 0
0.925552 0.027782 0
0.932978 0.023767 0
0.964660 0.018480 0
0.985964 0.005290 0
0.984730 -0.007698 0
0.980006 -0.019261 0
0.972080 -0.030912 0
0.962177 -0.042438 0
0.950417 -0.054003 0
0.936926 -0.065536 0
0.921716 -0.077003 0
0.904728 -0.088323 0
0.885872 -0.099431 0
0.865138 -0.110105 0
0.842391 -0.120152 0
0.817523 -0.129309 0
0.790463 -0.137222 0
0.761210 -0.143432 0
0.729862 -0.147371 0
0.696705 -0.148357 0
0.662302 -0.145676 0
0.627549 -0.138662 0
0.593653 -0.126734 0
0.562137 -0.109593 0
0.534611 -0.087411 0
0.512538 -0.061189 0
0.495771 -0.031785 0
0.486093 0.000233 0
0.482927 0.033264 0
0.523569 0.060077 0
0.530810 0.086438 0
0.543323 0.112282 0
0.561146 0.136566 0
0.584046 0.159044 0
0.612284 0.178296 0
0.644788 0.193515 0
0.680316 0.204187 0
0.717536 0.210264 0
0.755190 0.211968 0
0.792194 0.209778 0
0.827846 0.204347 0
0.861695 0.196310 0
0.893428 0.186244 0
0.922951 0.174644 0
0.950081 0.162042 0
0.975022 0.148844 0
0.997885 0.135235 0
1.018912 0.121439 0
1.038247 0.107600 0
1.056033 0.093845 0
1.072385 0.080260 0
1.087425 0.066913 0
1.101258 0.053852 0
1.113980 0.041116 0
1.125680 0.028735 0
1.136434 0.016729 0
1.146311 0.005117 0
1.155373 -0.006087 0
1.163671 -0.016873 0
1.171250 -0.027231 0
1.178153 -0.037152 0
1.184414 -0.046628 0
1.190051 -0.055681 0
1.195209 -0.064189 0
1.200156 -0.072198 0
1.199794 -0.081893 0
1.224996 -0.080841 0
1.114521 -0.115033 0
0.768641 -0.071619 0
0.771599 -0.069608 0
0.771667 -0.069520 0
0.769126 -0.068997 0
0.766303 -0.068650 0
0.762501 -0.068219 0
0.758023 -0.067748 0
0.752899 -0.067176 0
0.747200 -0.066468 0
0.740964 -0.065577 0
0.734233 -0.064452 0
0.727053 -0.063040 0
0.719483 -0.061283 0
0.711592 -0.059114 0
0.703456 -0.056461 0
0.695148 -0.053244 0
0.686730 -0.049373 0
0.678232 -0.044776 0
0.669648 -0.039416 0
0.660939 -0.033260 0
0.651988 -0.026476 0
0.642452 -0.019316 0
0.632432 -0.011918 0
0.619009 -0.005086 0
0.621010 0.004734 0
0.667087 0.012042 0
0.670670 0.016702 0
0.678186 0.023347 0
0.685065 0.029966 0
0.691982 0.036674 0
0.699048 0.043112 0
0.706395 0.048885 0
0.713949 0.053895 0
0.721645 0.058082 0
0.729420 0.061483 0
0.737230 0.064188 0
0.745049 0.066293 0
0.752847 0.067885 0
0.760601 0.069037 0
0.768291 0.069809 0
0.775900 0.070248 0
0.783418 0.070391 0
0.790845 0.070267 0
0.798186 0.069897 0
0.805453 0.069298 0
0.812659 0.068481 0
0.819825 0.067450 0
0.826968 0.066209 0
0.834108 0.064754 0
0.841262 0.063079 0
0.848447 0.061176 0
0.855677 0.059031 0
0.862963 0.056628 0
0.870309 0.053950 0
0.877713 0.050975 0
0.885162 0.047679 0
0.892617 0.044042 0
0.899997 0.040049 0
0.907187 0.035722 0
0.913983 0.031174 0
0.921538 0.026652 0
0.930540 0.022268 0
0.955866 0.016207 0
0.972822 0.003655 0
0.972174 -0.009182 0
0.966987 -0.020739 0
0.958609 -0.032198 0
0.948124 -0.043422 0
0.935769 -0.054531 0
0.921676 -0.065455 0
0.905856 -0.076143 0
0.888281 -0.086526 0
0.869035 -0.096396 0
0.848037 -0.105595 0
0.825257 -0.113890 0
0.800702 -0.120987 0
0.774438 -0.126523 0
0.746619 -0.130073 0
0.717528 -0.131148 0
0.687640 -0.129249 0
0.657667 -0.123942 0
0.628485 -0.114875 0
0.601131 -0.101861 0
0.576751 -0.085102 0
0.556514 -0.064851 0
0.540410 -0.042447 0
0.529088 -0.017964 0
0.522738 0.007683 0
0.520853 0.033786 0
0.554739 0.055149 0
0.560228 0.076419 0
0.569325 0.097603 0
0.582611 0.117958 0
0.599693 0.137503 0
0.621354 0.155055 0
0.646975 0.169976 0
0.675914 0.181667 0
0.707282 0.189784 0
0.740103 0.194273 0
0.773449 0.195252 0
0.806480 0.193043 0
0.838613 0.188098 0
0.869441 0.180877 0
0.898657 0.171825 0
0.926114 0.161345 0
0.951714 0.149805 0
0.975419 0.137609 0
0.997362 0.124954 0
1.017675 0.112012 0
1.036483 0.098930 0
1.053878 0.085830 0
1.069954 0.072817 0
1.084794 0.059964 0
1.098490 0.047329 0
1.111124 0.034957 0
1.122772 0.022883 0
1.133503 0.011136 0
1.143377 -0.000260 0
1.152448 -0.011288 0
1.160761 -0.021930 0
1.168362 -0.032171 0
1.175276 -0.041999 0
1.181549 -0.051425 0
1.187351 -0.060255 0
1.192424 -0.069073 0
1.192665 -0.078473 0
1.223357 -0.077451 0
1.047269 -0.106943 0
0.769251 -0.071162 0
0.773017 -0.069836 0
0.771164 -0.068773 0
0.768461 -0.067765 0
0.765205 -0.066959 0
0.761160 -0.066154 0
0.756606 -0.065347 0
0.751593 -0.064472 0
0.746178 -0.063479 0
0.740373 -0.062314 0
0.734182 -0.060920 0
0.727606 -0.059234 0
0.720668 -0.057191 0
0.713419 -0.054720 0
0.705957 -0.051752 0
0.698417 -0.048222 0
0.690958 -0.044081 0
0.683711 -0.039322 0
0.676728 -0.033971 0
0.669898 -0.028123 0
0.662851 -0.021977 0
0.654870 -0.015721 0
0.645598 -0.009409 0
0.632022 -0.003528 0
0.632178 0.004995 0
0.676614 0.011382 0
0.682149 0.015154 0
0.689708 0.020841 0
0.695781 0.026454 0
0.701125 0.032231 0
0.706164 0.037956 0
0.711415 0.043433 0
0.717136 0.048390 0
0.723375 0.052745 0
0.730088 0.056435 0
0.737166 0.059477 0
0.744491 0.061924 0
0.751952 0.063841 0
0.759461 0.065291 0
0.766955 0.066332 0