# vtk DataFile Version 2.0
results-32.vtk 
ASCII
DATASET UNSTRUCTURED_GRID
POINTS 1056 float
-0.015395 0.035407 0
0.014810 0.067659 0
0.062099 0.095795 0
0.124489 0.119020 0
0.199750 0.136632 0
0.285385 0.148185 0
0.378675 0.153548 0
0.476700 0.152874 0
0.576338 0.146532 0
0.674250 0.135030 0
0.766880 0.118977 0
0.850498 0.099085 0
0.921316 0.076214 0
0.975662 0.051385 0
1.010188 0.025701 0
1.022129 0.000000 0
1.010188 -0.025701 0
0.975662 -0.051385 0
0.921316 -0.076214 0
0.850498 -0.099085 0
0.766880 -0.118977 0
0.674250 -0.135030 0
0.576338 -0.146532 0
0.476700 -0.152874 0
0.378675 -0.153548 0
0.285385 -0.148185 0
0.199750 -0.136632 0
0.124489 -0.119020 0
0.062099 -0.095795 0
0.014810 -0.067659 0
-0.015395 -0.035407 0
-0.059116 0.055112 0
-0.025875 0.106389 0
0.026093 0.152126 0
0.094667 0.190923 0
0.177364 0.221571 0
0.271324 0.243195 0
0.373397 0.255296 0
0.480204 0.257741 0
0.588178 0.250696 0
0.693577 0.234574 0
0.792520 0.210004 0
0.881052 0.177847 0
0.955278 0.139242 0
1.011571 0.095617 0
1.046838 0.048632 0
1.058876 0.000000 0
1.046838 -0.048632 0
1.011571 -0.095617 0
0.955278 -0.139242 0
0.881052 -0.177847 0
0.792520 -0.210004 0
0.693577 -0.234574 0
0.588178 -0.250696 0
0.480204 -0.257741 0
0.373397 -0.255296 0
0.271324 -0.243195 0
0.177364 -0.221571 0
0.094667 -0.190923 0
0.026093 -0.152126 0
-0.025875 -0.106389 0
-0.059116 -0.055112 0
-0.123088 0.076974 0
-0.085719 0.149375 0
-0.027273 0.214679 0
0.049887 0.270760 0
0.142932 0.315792 0
0.248558 0.348381 0
0.363093 0.367615 0
0.482600 0.373056 0
0.602955 0.364694 0
0.719899 0.342900 0
0.829095 0.308411 0
0.926226 0.262352 0
1.007149 0.206281 0
1.068121 0.142205 0
1.106087 0.072541 0
1.118994 0.000000 0
1.106087 -0.072541 0
1.068121 -0.142205 0
1.007149 -0.206281 0
0.926226 -0.262352 0
0.829095 -0.308411 0
0.719899 -0.342900 0
0.602955 -0.364694 0
0.482600 -0.373056 0
0.363093 -0.367615 0
0.248558 -0.348381 0
0.142932 -0.315792 0
0.049887 -0.270760 0
-0.027273 -0.214679 0
-0.085719 -0.149375 0
-0.123088 -0.076974 0
-0.209938 0.101857 0
-0.167209 0.198274 0
-0.100235 0.285806 0
-0.011715 0.361484 0
0.095070 0.422751 0
0.216253 0.467604 0
0.347516 0.494656 0
0.484231 0.503144 0
0.621571 0.492892 0
0.754602 0.464279 0
0.878374 0.418229 0
0.988043 0.356239 0
1.079050 0.280415 0
1.147363 0.193486 0
1.189770 0.098761 0
1.204160 0.000000 0
1.189770 -0.098761 0
1.147363 -0.193486 0
1.079050 -0.280415 0
0.988043 -0.356239 0
0.878374 -0.418229 0
0.754602 -0.464279 0
0.621571 -0.492892 0
0.484231 -0.503144 0
0.347516 -0.494656 0
0.216253 -0.467604 0
0.095070 -0.422751 0
-0.011715 -0.361484 0
-0.100235 -0.285806 0
-0.167209 -0.198274 0
-0.209938 -0.101857 0
-0.323149 0.130712 0
-0.273615 0.254946 0
-0.195718 0.368194 0
-0.092592 0.466502 0
0.031907 0.546455 0
0.173205 0.605337 0
0.326180 0.641215 0
0.485337 0.652962 0
0.644966 0.640242 0
0.799266 0.603485 0
0.942478 0.543878 0
1.069041 0.463396 0
1.173794 0.364821 0
1.252241 0.251745 0
1.300851 0.128501 0
1.317329 0.000000 0
1.300851 -0.128501 0
1.252241 -0.251745 0
1.173794 -0.364821 0
1.069041 -0.463396 0
0.942478 -0.543878 0
0.799266 -0.603485 0
0.644966 -0.640242 0
0.485337 -0.652962 0
0.326180 -0.641215 0
0.173205 -0.605337 0
0.031907 -0.546455 0
-0.092592 -0.466502 0
-0.195718 -0.368194 0
-0.273615 -0.254946 0
-0.323149 -0.130712 0
-0.467199 0.164638 0
-0.409136 0.321549 0
-0.317482 0.464973 0
-0.195911 0.589800 0
-0.049002 0.691602 0
0.117791 0.766821 0
0.298345 0.812887 0
0.486087 0.828265 0
0.674193 0.812454 0
0.855768 0.765969 0
1.024015 0.690344 0
1.172431 0.588139 0
1.295049 0.462957 0
1.386727 0.319411 0
1.443464 0.163019 0
1.462683 0.000000 0
1.443464 -0.163019 0
1.386727 -0.319411 0
1.295049 -0.462957 0
1.172431 -0.588139 0
1.024015 -0.690344 0
0.855768 -0.765969 0
0.674193 -0.812454 0
0.486087 -0.828265 0
0.298345 -0.812887 0
0.117791 -0.766821 0
-0.049002 -0.691602 0
-0.195911 -0.589800 0
-0.317482 -0.464973 0
-0.409136 -0.321549 0
-0.467199 -0.164638 0
-0.647730 0.204932 0
-0.579073 0.400628 0
-0.470278 0.579842 0
-0.325690 0.736093 0
-0.150782 0.863744 0
0.047901 0.958242 0
0.262998 1.016269 0
0.486594 1.035817 0
0.710482 1.016203 0
0.926391 0.958069 0
1.126214 0.863378 0
1.302251 0.735407 0
1.447496 0.578740 0
1.555963 0.399204 0
1.623027 0.203710 0
1.645732 0.000000 0
1.623027 -0.203710 0
1.555963 -0.399204 0
1.447496 -0.578740 0
1.302251 -0.735407 0
1.126214 -0.863378 0
0.926391 -0.958069 0
0.710482 -1.016203 0
0.486594 -1.035817 0
0.262998 -1.016269 0
0.047901 -0.958242 0
-0.150782 -0.863744 0
-0.325690 -0.736093 0
-0.470278 -0.579842 0
-0.579073 -0.400628 0
-0.647730 -0.204932 0
-0.871780 0.253137 0
-0.790042 0.495216 0
-0.660045 0.717210 0
-0.486960 0.910997 0
-0.277362 1.069497 0
-0.039140 1.186968 0
0.218816 1.259203 0
0.486936 1.283636 0
0.755299 1.259384 0
1.013926 1.187254 0
1.253074 1.069733 0
1.463545 0.910968 0
1.637025 0.716724 0
1.766456 0.494272 0
1.846425 0.252183 0
1.873486 0.000000 0
1.846425 -0.252183 0
1.766456 -0.494272 0
1.637025 -0.716724 0
1.463545 -0.910968 0
1.253074 -1.069733 0
1.013926 -1.187254 0
0.755299 -1.259384 0
0.486936 -1.283636 0
0.218816 -1.259203 0
-0.039140 -1.186968 0
-0.277362 -1.069497 0
-0.486960 -0.910997 0
-0.660045 -0.717210 0
-0.790042 -0.495216 0
-0.871780 -0.253137 0
-1.148052 0.311108 0
-1.050229 0.608951 0
-0.894140 0.882365 0
-0.685963 1.121249 0
-0.433630 1.316790 0
-0.146678 1.461821 0
0.164123 1.551068 0
0.487167 1.581304 0
0.810421 1.551415 0
1.121796 1.462415 0
1.409529 1.317431 0
1.662563 1.121662 0
1.870957 0.882293 0
2.026323 0.608332 0
2.122258 0.310334 0
2.154709 0.000000 0
2.122258 -0.310334 0
2.026323 -0.608332 0
1.870957 -0.882293 0
1.662563 -1.121662 0
1.409529 -1.317431 0
1.121796 -1.462415 0
0.810421 -1.551415 0
0.487167 -1.581304 0
0.164123 -1.551068 0
-0.146678 -1.461821 0
-0.433630 -1.316790 0
-0.685963 -1.121249 0
-0.894140 -0.882365 0
-1.050229 -0.608951 0
-1.148052 -0.311108 0
-1.487259 0.381078 0
-1.369720 0.746220 0
-1.181630 1.081675 0
-0.930401 1.374959 0
-0.625624 1.615168 0
-0.278857 1.793414 0
0.096826 1.903143 0
0.487323 1.940336 0
0.878007 1.903603 0
1.254199 1.794216 0
1.601649 1.616081 0
1.907009 1.375670 0
2.158335 1.081882 0
2.345596 0.745819 0
2.461170 0.380427 0
2.500252 0.000000 0
2.461170 -0.380427 0
2.345596 -0.745819 0
2.158335 -1.081882 0
1.907009 -1.375670 0
1.601649 -1.616081 0
1.254199 -1.794216 0
0.878007 -1.903603 0
0.487323 -1.940336 0
0.096826 -1.903143 0
-0.278857 -1.793414 0
-0.625624 -1.615168 0
-0.930401 -1.374959 0
-1.181630 -1.081675 0
-1.369720 -0.746220 0
-1.487259 -0.381078 0
-1.902540 0.465749 0
-1.760886 0.912320 0
-1.533642 1.322836 0
-1.229728 1.681926 0
-0.860765 1.976157 0
-0.440779 2.194562 0
0.014338 2.329041 0
0.487429 2.374617 0
0.960689 2.329575 0
1.416271 2.195503 0
1.836872 1.977253 0
2.206340 1.682836 0
2.510269 1.323230 0
2.736614 0.912066 0
2.876254 0.465180 0
2.923462 0.000000 0
2.876254 -0.465180 0
2.736614 -0.912066 0
2.510269 -1.323230 0
2.206340 -1.682836 0
1.836872 -1.977253 0
1.416271 -2.195503 0
0.960689 -2.329575 0
0.487429 -2.374617 0
0.014338 -2.329041 0
-0.440779 -2.194562 0
-0.860765 -1.976157 0
-1.229728 -1.681926 0
-1.533642 -1.322836 0
-1.760886 -0.912320 0
-1.902540 -0.465749 0
-2.409969 0.568390 0
-2.238865 1.113668 0
-1.963796 1.615165 0
-1.595524 2.054013 0
-1.148143 2.413711 0
-0.638698 2.680774 0
-0.086521 2.845229 0
0.487500 2.900945 0
1.061679 2.845813 0
1.614290 2.681807 0
2.124305 2.414927 0
2.572135 2.055055 0
2.940370 1.615684 0
3.214494 1.113514 0
3.383554 0.567878 0
3.440696 0.000000 0
3.383554 -0.567878 0
3.214494 -1.113514 0
2.940370 -1.615684 0
2.572135 -2.055055 0
2.124305 -2.414927 0
1.614290 -2.681807 0
1.061679 -2.845813 0
0.487500 -2.900945 0
-0.086521 -2.845229 0
-0.638698 -2.680774 0
-1.148143 -2.413711 0
-1.595524 -2.054013 0
-1.963796 -1.615165 0
-2.238865 -1.113668 0
-2.409969 -0.568390 0
-3.029183 0.692968 0
-2.822150 1.358047 0
-2.488734 1.969963 0
-2.041935 2.505604 0
-1.498871 2.944746 0
-0.880264 3.270850 0
-0.209644 3.471672 0
0.487548 3.539678 0
1.184890 3.472288 0
1.855923 3.271942 0
2.475068 2.946041 0
3.018544 2.506732 0
3.465268 1.970565 0
3.797712 1.357960 0
4.002684 0.692495 0
4.071951 0.000000 0
4.002684 -0.692495 0
3.797712 -1.357960 0
3.465268 -1.970565 0
3.018544 -2.506732 0
2.475068 -2.946041 0
1.855923 -3.271942 0
1.184890 -3.472288 0
0.487548 -3.539678 0
-0.209644 -3.471672 0
-0.880264 -3.270850 0
-1.498871 -2.944746 0
-2.041935 -2.505604 0
-2.488734 -1.969963 0
-2.822150 -1.358047 0
-3.029183 -0.692968 0
-3.784137 0.844300 0
-3.533308 1.654905 0
-3.128760 2.400948 0
-2.586230 3.054160 0
-1.926512 3.589797 0
-1.174816 3.987610 0
-0.359787 4.232595 0
0.487580 4.315522 0
1.335093 4.233232 0
2.150519 3.988739 0
2.902730 3.591141 0
3.562833 3.055344 0
4.105266 2.401604 0
4.508823 1.654863 0
4.757586 0.843854 0
4.841639 0.000000 0
4.757586 -0.843854 0
4.508823 -1.654863 0
4.105266 -2.401604 0
3.562833 -3.055344 0
2.902730 -3.591141 0
2.150519 -3.988739 0
1.335093 -4.233232 0
0.487580 -4.315522 0
-0.359787 -4.232595 0
-1.174816 -3.987610 0
-1.926512 -3.589797 0
-2.586230 -3.054160 0
-3.128760 -2.400948 0
-3.533308 -1.654905 0
-3.784137 -0.844300 0
-4.704034 1.028237 0
-4.399845 2.015721 0
-3.908631 2.924785 0
-3.249458 3.720894 0
-2.447605 4.373810 0
-1.533744 4.858774 0
-0.542755 5.157430 0
0.487602 5.258483 0
1.518101 5.158078 0
2.509475 4.859925 0
3.423833 4.375184 0
4.226054 3.722112 0
4.885113 2.925476 0
5.375329 2.015709 0
5.677454 1.027811 0
5.779525 0.000000 0
5.677454 -1.027811 0
5.375329 -2.015709 0
4.885113 -2.925476 0
4.226054 -3.722112 0
3.423833 -4.375184 0
2.509475 -4.859925 0
1.518101 -5.158078 0
0.487602 -5.258483 0
-0.542755 -5.157430 0
-1.533744 -4.858774 0
-2.447605 -4.373810 0
-3.249458 -3.720894 0
-3.908631 -2.924785 0
-4.399845 -2.015721 0
-4.704034 -1.028237 0
-5.824457 1.251892 0
-5.455280 2.454448 0
-4.858511 3.561733 0
-4.057271 4.531592 0
-3.082302 5.327106 0
-1.970927 5.918035 0
-0.765622 6.281946 0
0.487616 6.405035 0
1.740994 6.282598 0
2.946676 5.919195 0
4.058535 5.328494 0
[...]
CELL_DATA 1024
VECTORS U float
0.309650 0.196517 0
0.578949 0.312810 0
0.798318 0.272586 0
0.951930 0.190480 0
1.047318 0.111560 0
1.107128 0.047720 0
1.148178 -0.002415 0
1.150910 -0.040275 0
1.282238 -0.073292 0
0.869330 -0.053380 0
0.690783 -0.053435 0
0.674781 -0.066419 0
0.634623 -0.068322 0
0.596114 -0.067260 0
0.551489 -0.061718 0
0.522774 -0.035498 0
0.573758 0.046463 0
0.614654 0.068733 0
0.661938 0.075862 0
0.702547 0.076633 0
0.739466 0.074097 0
0.774910 0.068940 0
0.810784 0.060773 0
0.847876 0.048493 0
0.891742 0.030858 0
0.955769 0.004244 0
0.966612 -0.037760 0
0.924386 -0.091171 0
0.840849 -0.153933 0
0.702288 -0.212298 0
0.502867 -0.229295 0
0.287206 -0.096803 0
0.474044 0.126799 0
0.617892 0.221609 0
0.777491 0.225852 0
0.916505 0.185533 0
1.021882 0.126867 0
1.096922 0.067021 0
1.151334 0.012178 0
1.169769 -0.029787 0
1.292702 -0.072955 0
0.952473 -0.060086 0
0.767161 -0.048099 0
0.748049 -0.062130 0
0.700348 -0.060031 0
0.649115 -0.052870 0
0.592098 -0.038263 0
0.555042 -0.011016 0
0.607175 0.023029 0
0.649300 0.045221 0
0.699869 0.061159 0
0.746985 0.067852 0
0.789526 0.068619 0
0.827881 0.065264 0
0.863384 0.058250 0
0.897102 0.047040 0
0.934633 0.030896 0
0.976973 0.004986 0
0.967245 -0.037176 0
0.913427 -0.084796 0
0.826145 -0.128465 0
0.706802 -0.152487 0
0.571572 -0.129435 0
0.460373 -0.027907 0
0.590391 0.080660 0
0.648457 0.142766 0
0.737072 0.173152 0
0.841008 0.169069 0
0.939698 0.137523 0
1.023146 0.091441 0
1.090116 0.039296 0
1.127647 -0.005642 0
1.242941 -0.062480 0
0.924504 -0.067631 0
0.782842 -0.044843 0
0.776831 -0.053818 0
0.740568 -0.047547 0
0.695858 -0.037848 0
0.640901 -0.023746 0
0.596368 -0.004360 0
0.645665 0.016484 0
0.688356 0.031781 0
0.731060 0.046385 0
0.768910 0.055153 0
0.801139 0.058380 0
0.828675 0.057050 0
0.854200 0.051786 0
0.880693 0.042173 0
0.912079 0.026512 0
0.935974 -0.001221 0
0.913738 -0.041853 0
0.855880 -0.078614 0
0.778475 -0.100306 0
0.695274 -0.096454 0
0.626501 -0.061569 0
0.585060 0.001098 0
0.664335 0.053861 0
0.685077 0.090848 0
0.728643 0.121132 0
0.794847 0.135077 0
0.873492 0.127344 0
0.952961 0.100504 0
1.025600 0.058960 0
1.077659 0.016138 0
1.177535 -0.052117 0
0.886299 -0.062158 0
0.789010 -0.041248 0
0.785028 -0.044849 0
0.760510 -0.034939 0
0.730297 -0.024839 0
0.684662 -0.014956 0
0.631430 -0.002758 0
0.676971 0.014974 0
0.722552 0.024232 0
0.753203 0.034352 0
0.775676 0.043158 0
0.796005 0.048636 0
0.816894 0.049536 0
0.839755 0.045619 0
0.864901 0.036439 0
0.889524 0.020052 0
0.895794 -0.007105 0
0.864952 -0.039246 0
0.811337 -0.060431 0
0.752760 -0.063721 0
0.703471 -0.047901 0
0.673365 -0.018385 0
0.661708 0.016605 0
0.708858 0.041853 0
0.717438 0.063303 0
0.738697 0.085752 0
0.777927 0.103114 0
0.834050 0.108002 0
0.900575 0.096519 0
0.969269 0.067619 0
1.027613 0.030068 0
1.100294 -0.044372 0
0.859071 -0.048566 0
0.799452 -0.035432 0
0.790367 -0.035134 0
0.772254 -0.023962 0
0.754333 -0.014859 0
0.719212 -0.008452 0
0.661400 -0.001383 0
0.702913 0.014103 0
0.748564 0.019231 0
0.767902 0.025890 0
0.777967 0.033444 0
0.790354 0.039691 0
0.807916 0.041980 0
0.829147 0.039170 0
0.851275 0.030572 0
0.867468 0.014441 0
0.862163 -0.009197 0
0.830381 -0.031098 0
0.787555 -0.039972 0
0.748572 -0.034284 0
0.722006 -0.017910 0
0.709553 0.002609 0
0.706793 0.022416 0
0.737282 0.035726 0
0.742029 0.048671 0
0.753303 0.063664 0
0.776233 0.078362 0
0.814007 0.087423 0
0.865320 0.085217 0
0.924398 0.066932 0
0.980446 0.035492 0
1.017470 -0.034574 0
0.844467 -0.033543 0
0.808864 -0.027293 0
0.795489 -0.024941 0
0.780890 -0.014867 0
0.770664 -0.007399 0
0.744927 -0.003155 0
0.686671 0.000308 0
0.724161 0.013449 0
0.766897 0.015825 0
0.777267 0.020480 0
0.780214 0.026505 0
0.788114 0.032184 0
0.802535 0.034926 0
0.820610 0.033099 0
0.838272 0.025495 0
0.847216 0.010998 0
0.836518 -0.007385 0
0.808838 -0.020386 0
0.778020 -0.021870 0
0.754221 -0.013750 0
0.740743 -0.000890 0
0.735729 0.012322 0
0.735436 0.024206 0
0.756347 0.031841 0
0.759528 0.040070 0
0.766275 0.049922 0
0.780194 0.060820 0
0.805227 0.069758 0
0.843067 0.071824 0
0.890846 0.060797 0
0.938301 0.035121 0
0.949938 -0.021788 0
0.838030 -0.020608 0
0.814396 -0.018658 0
0.799422 -0.015501 0
0.787580 -0.007605 0
0.781587 -0.001818 0
0.763516 0.001200 0
0.707628 0.002147 0
0.741267 0.013093 0
0.779335 0.013643 0
0.783341 0.017219 0
0.783185 0.021825 0
0.788444 0.026305 0
0.799354 0.028918 0
0.813476 0.027893 0
0.826611 0.021575 0
0.830506 0.009632 0
0.818663 -0.003416 0
0.796953 -0.010126 0
0.776268 -0.008152 0
0.762480 -0.000641 0
0.755899 0.008508 0
0.754107 0.016997 0
0.754691 0.024508 0
0.769452 0.029006 0
0.771801 0.034425 0
0.776275 0.040991 0
0.785255 0.048694 0
0.802064 0.055991 0
0.829373 0.059274 0
0.866178 0.052479 0
0.902630 0.032026 0
0.902641 -0.009400 0
0.834201 -0.010300 0
0.816463 -0.010702 0
0.802075 -0.007550 0
0.792675 -0.001914 0
0.788838 0.002414 0
0.776693 0.004737 0
0.724766 0.003990 0
0.754782 0.013039 0
0.787565 0.012435 0
0.787495 0.015378 0
0.786421 0.018769 0
0.789902 0.022009 0
0.797500 0.024234 0
0.807829 0.023768 0
0.817050 0.018831 0
0.817912 0.009710 0
0.807190 0.001125 0
0.791311 -0.001710 0
0.778057 0.001392 0
0.770348 0.007401 0
0.767324 0.013720 0
0.767023 0.019285 0
0.767969 0.024188 0
0.778527 0.026805 0
0.780365 0.030450 0
0.783554 0.034899 0
0.789690 0.040263 0
0.801260 0.045731 0
0.820789 0.048800 0
0.848025 0.044351 0
0.873960 0.028598 0
0.871348 0.000267 0
0.830305 -0.002414 0
0.816154 -0.003894 0
0.803728 -0.001243 0
0.796413 0.002500 0
0.793601 0.005658 0
0.785844 0.007564 0
0.738650 0.005749 0
0.765299 0.013215 0
0.792901 0.011947 0
0.790513 0.014441 0
0.789435 0.016834 0
0.791602 0.019063 0
0.796512 0.020834 0
0.803654 0.020709 0
0.809769 0.017078 0
0.809054 0.010556 0
0.800325 0.005287 0
0.789265 0.004597 0
0.781058 0.007717 0
0.776917 0.012246 0
0.775748 0.016598 0
0.776147 0.020316 0
0.777205 0.023581 0
0.784825 0.025045 0
0.786314 0.027532 0
0.788699 0.030583 0
0.793079 0.034307 0
0.801237 0.038232 0
0.815168 0.040633 0
0.834808 0.037586 0
0.852792 0.025924 0
0.850601 0.006868 0
0.825880 0.003324 0
0.814549 0.001572 0
0.804628 0.003555 0
0.799020 0.005902 0
0.796686 0.008157 0
0.792062 0.009790 0
0.749847 0.007370 0
0.773392 0.013533 0
0.796281 0.011946 0
0.792797 0.014068 0
0.791977 0.015674 0
0.793161 0.017168 0
0.796096 0.018517 0
0.800763 0.018580 0
0.804568 0.016068 0
0.803187 0.011678 0
0.796533 0.008689 0
0.789107 0.009071 0
0.784190 0.011792 0
0.782121 0.015124 0
0.781920 0.018135 0
0.782622 0.020653 0
0.783663 0.022857 0
0.789203 0.023619 0
0.790427 0.025334 0
0.792267 0.027445 0
0.795489 0.030032 0
0.801353 0.032791 0
0.811309 0.034518 0
0.825302 0.032372 0
0.837792 0.023962 0
0.836564 0.011070 0
0.821388 0.007409 0
0.812486 0.005771 0
0.804965 0.007120 0
0.800709 0.008522 0
0.798641 0.010092 0
0.796191 0.011524 0
0.758876 0.008829 0
0.779574 0.013922 0
0.798362 0.012244 0
0.794551 0.014034 0
0.793991 0.015049 0
0.794469 0.016038 0
0.796045 0.017033 0
0.798895 0.017192 0
0.801071 0.015566 0
0.799529 0.012791 0
0.794678 0.011286 0
0.789848 0.012135 0
0.787026 0.014365 0
0.786151 0.016794 0
0.786439 0.018890 0
0.787237 0.020611 0
0.788196 0.022116 0
0.792253 0.022455 0
0.793264 0.023651 0
0.794709 0.025123 0
0.797129 0.026927 0
0.801408 0.028848 0
0.808563 0.030039 0
0.818520 0.028500 0
0.827296 0.022501 0
0.826833 0.013651 0
0.817286 0.010300 0
0.810442 0.008898 0
0.804896 0.009731 0
0.801683 0.010535 0
0.799831 0.011597 0
0.798856 0.012862 0
0.766174 0.010114 0
0.784278 0.014331 0
0.799592 0.012702 0
0.795897 0.014193 0
0.795528 0.014787 0
0.795528 0.015438 0
0.796215 0.016152 0
0.797789 0.016356 0
0.798869 0.015388 0
0.797413 0.013768 0
0.793991 0.013185 0
0.790950 0.014181 0
0.789441 0.015954 0
0.789240 0.017721 0
0.789753 0.019189 0
0.790541 0.020375 0
0.791391 0.021412 0
0.794384 0.021504 0
0.795218 0.022346 0
0.796366 0.023383 0
0.798211 0.024646 0
0.801374 0.025983 0
0.806560 0.026788 0
0.813683 0.025666 0
0.819938 0.021387 0
0.819943 0.015207 0
0.813791 0.012343 0
0.808623 0.011178 0
0.804566 0.011632 0
0.802140 0.012078 0
0.800506 0.012768 0
0.800511 0.013890 0
0.772098 0.011231 0
0.787854 0.014728 0
0.800277 0.013224 0
0.796920 0.014454 0
0.796670 0.014760 0
0.796374 0.015187 0
0.796505 0.015689 0
0.797221 0.015907 0
0.797597 0.015404 0
0.796326 0.014569 0
0.793975 0.014532 0
0.792137 0.015519 0
0.791434 0.016908 0
0.791599 0.018196 0
0.792192 0.019229 0
0.792919 0.020053 0
0.793656 0.020774 0
0.795880 0.020728 0
0.796567 0.021327 0
0.797484 0.022063 0
0.798906 0.022955 0
0.801272 0.023888 0
0.805069 0.024427 0
0.810213 0.023596 0
0.814734 0.020525 0
0.814981 0.016136 0
0.810932 0.013783 0
0.807078 0.012822 0
0.804098 0.013019 0
0.802257 0.013255 0
0.800840 0.013683 0
0.801477 0.014678 0
0.776932 0.012192 0
0.790575 0.015094 0
0.800620 0.013753 0
0.797688 0.014757 0
0.797507 0.014878 0
0.797049 0.015155 0
0.796851 0.015501 0
0.797015 0.015716 0
0.796961 0.015524 0
0.795898 0.015202 0
0.794321 0.015469 0
0.793273 0.016374 0
0.793055 0.017456 0
0.793402 0.018397 0
0.793996 0.019129 0
0.794643 0.019706 0
0.795270 0.020212 0
0.796936 0.020096 0
0.797501 0.020526 0
0.798236 0.021053 0
0.799342 0.021689 0
0.801131 0.022344 0
0.803942 0.022703 0
0.807699 0.022079 0
0.811011 0.019853 0
0.811358 0.016687 0
0.808646 0.014796 0
0.805790 0.014001 0
0.803578 0.014036 0
0.802172 0.014153 0
0.800956 0.014398 0
0.801980 0.015280 0
0.780893 0.013011 0
0.792652 0.015423 0
0.800756 0.014254 0
0.798258 0.015067 0
0.798115 0.015075 0
0.797587 0.015252 0
0.797210 0.015487 0
0.797040 0.015689 0
0.796741 0.015694 0
0.795873 0.015690 0
0.794841 0.016109 0
0.794301 0.016906 0
0.794361 0.017747 0
0.794784 0.018440 0
0.795339 0.018962 0
0.795900 0.019369 0
0.796428 0.019727 0
0.797687 0.019580 0
0.798150 0.019892 0
0.798741 0.020274 0
0.799608 0.020731 0
0.800975 0.021195 0
0.803080 0.021434 0
0.805856 0.020959 0
0.808312 0.019327 0
0.808682 0.017009 0
0.806838 0.015507 0
0.804724 0.014848 0
0.803063 0.014789 0
0.801980 0.014837 0
0.800940 0.014959 0
0.802177 0.015740 0
0.784151 0.013706 0
0.794242 0.015710 0
0.800770 0.014708 0
0.798677 0.015364 0
0.798555 0.015307 0
0.798017 0.015418 0
0.797559 0.015574 0
0.797201 0.015759 0
0.796778 0.015881 0
0.796079 0.016062 0
0.795423 0.016541 0
0.795201 0.017226 0
0.795410 0.017881 0
0.795848 0.018393 0
0.796346 0.018769 0
0.796825 0.019058 0
0.797267 0.019314 0
0.798225 0.019160 0
0.798604 0.019388 0
0.799081 0.019669 0
0.799765 0.020001 0
0.800819 0.020332 0
0.802412 0.020491 0
0.804488 0.020124 0
0.806331 0.018913 0
0.806684 0.017194 0
0.805413 0.016005 0
0.803845 0.015458 0
0.802582 0.015351 0
0.801742 0.015360 0
0.800852 0.015401 0
0.802179 0.016091 0
0.786840 0.014292 0
0.795465 0.015959 0
0.800717 0.015110 0
0.798983 0.015636 0
0.798874 0.015548 0
0.798362 0.015615 0
0.797882 0.015717 0
0.797434 0.015882 0
0.796965 0.016066 0
0.796406 0.016344 0
0.796003 0.016827 0
0.795974 0.017408 0
0.796253 0.017920 0
0.796671 0.018301 0
0.797107 0.018574 0
0.797512 0.018782 0
0.797878 0.018966 0
0.798615 0.018818 0
0.798924 0.018987 0
0.799309 0.019195 0
0.799852 0.019438 0
0.800672 0.019677 0
0.801890 0.019783 0
0.803459 0.019497 0
0.804858 0.018587 0
0.805177 0.017296 0
0.804290 0.016356 0
0.803120 0.015901 0
0.802149 0.015774 0
0.801496 0.015762 0
0.800732 0.015751 0
0.802061 0.016359 0
0.789063 0.014785 0
0.796409 0.016170 0
0.800631 0.015458 0
0.799205 0.015880 0
0.799106 0.015780 0
0.798638 0.015818 0
0.798172 0.015883 0
0.797697 0.016028 0
0.797228 0.016239 0
0.796782 0.016557 0
0.796548 0.017015 0
0.796628 0.017503 0
0.796929 0.017904 0
0.797311 0.018191 0
0.797687 0.018390 0
0.798026 0.018541 0
0.798329 0.018675 0
0.798899 0.018539 0
0.799152 0.018666 0
0.799463 0.018821 0
0.799896 0.019002 0
0.800538 0.019176 0
0.801478 0.019246 0
0.802677 0.019021 0
0.803749 0.018330 0
0.804028 0.017348 0
0.803402 0.016602 0
0.802523 0.016225 0
0.801770 0.016095 0
0.801259 0.016072 0
0.800601 0.016030 0
0.801878 0.016564 0
0.790903 0.015198 0
0.797142 0.016349 0
0.800533 0.015755 0
0.799366 0.016093 0
0.799276 0.015993 0
0.798861 0.016012 0
0.798429 0.016053 0
0.797964 0.016179 0
0.797520 0.016394 0
0.797166 0.016718 0
0.797041 0.017136 0
0.797179 0.017543 0
0.797474 0.017859 0
0.797812 0.018076 0
0.798132 0.018224 0
0.798414 0.018334 0
0.798664 0.018433 0
0.799108 0.018313 0
0.799315 0.018408 0
0.799567 0.018526 0
0.799913 0.018661 0
0.800419 0.018789 0
0.801151 0.018834 0
0.802076 0.018656 0
0.802905 0.018125 0
0.803145 0.017370 0
0.802697 0.016777 0
0.802031 0.016464 0
0.801443 0.016340 0
0.801043 0.016313 0
0.800476 0.016253 0
0.801664 0.016719 0
0.792427 0.015544 0
0.797711 0.016499 0
0.800434 0.016007 0
0.799483 0.016277 0
0.799402 0.016184 0
0.799040 0.016191 0
0.798652 0.016217 0
0.798219 0.016325 0
0.797815 0.016531 0
0.797532 0.016841 0
0.797476 0.017212 0
0.797638 0.017550 0
0.797913 0.017801 0
0.798207 0.017967 0
0.798477 0.018078 0
0.798711 0.018159 0
0.798916 0.018233 0
0.799264 0.018128 0
0.799432 0.018201 0
0.799636 0.018291 0
0.799914 0.018393 0
0.800316 0.018487 0
0.800889 0.018517 0
0.801609 0.018374 0
0.802256 0.017962 0
0.802459 0.017376 0
0.802135 0.016902 0
0.801626 0.016642 0
0.801163 0.016529 0
0.800849 0.016500 0
0.800361 0.016432 0
0.801441 0.016836 0
0.793690 0.015831 0
0.798156 0.016624 0
0.800341 0.016218 0
0.799568 0.016434 0
0.799496 0.016350 0
0.799186 0.016351 0
0.798844 0.016367 0
0.798454 0.016459 0
0.798094 0.016649 0
0.797868 0.016934 0
0.797855 0.017258 0
0.798021 0.017539 0
0.798268 0.017739 0
0.798521 0.017868 0
0.798746 0.017951 0
0.798939 0.018013 0
0.799107 0.018068 0
0.799382 0.017979 0
0.799518 0.018035 0
0.799683 0.018103 0
0.799906 0.018181 0
0.800226 0.018251 0
0.800679 0.018270 0
0.801242 0.018154 0
0.801751 0.017832 0
0.801921 0.017372 0
0.801684 0.016992 0
0.801292 0.016775 0
0.800926 0.016674 0
0.800679 0.016647 0
0.800260 0.016576 0
0.801225 0.016925 0
0.794737 0.016070 0
0.798504 0.016727 0
0.800257 0.016393 0
0.799631 0.016566 0
0.799567 0.016493 0
0.799305 0.016491 0
0.799009 0.016501 0
0.798664 0.016580 0
0.798350 0.016751 0
0.798169 0.017006 0
0.798181 0.017286 0
0.798339 0.017519 0
0.798556 0.017679 0
0.798770 0.017780 0
0.798957 0.017844 0
0.799116 0.017890 0
0.799254 0.017932 0
0.799471 0.017858 0
0.799581 0.017901 0
0.799715 0.017954 0
0.799894 0.018013 0
0.800150 0.018066 0
0.800508 0.018077 0
0.800953 0.017982 0
0.801354 0.017727 0
0.801496 0.017364 0
0.801321 0.017056 0
0.801016 0.016876 0
0.800725 0.016787 0
0.800532 0.016762 0
0.800174 0.016693 0
0.801024 0.016991 0
0.795605 0.016268 0
0.798778 0.016811 0
0.800184 0.016537 0
0.799677 0.016677 0
0.799622 0.016615 0
0.799402 0.016611 0
0.799149 0.016618 0
0.798850 0.016685 0
0.798580 0.016836 0
0.798434 0.017062 0
0.798458 0.017301 0
0.798603 0.017495 0
0.798790 0.017624 0
0.798970 0.017704 0
0.799125 0.017753 0
0.799255 0.017789 0
0.799367 0.017822 0
0.799539 0.017760 0
0.799629 0.017794 0
0.799736 0.017834 0
0.799880 0.017880 0
0.800084 0.017919 0
0.800369 0.017925 0
0.800721 0.017847 0
0.801040 0.017643 0
0.801158 0.017353 0
0.801026 0.017103 0
0.800788 0.016953 0
0.800556 0.016875 0
0.800404 0.016852 0
0.800100 0.016786 0
0.800841 0.017041 0
0.796324 0.016430 0
0.798993 0.016880 0
0.800121 0.016656 0
0.799712 0.016768 0
0.799666 0.016717 0
0.799482 0.016713 0
0.799268 0.016718 0
0.799012 0.016776 0
0.798782 0.016909 0
0.798664 0.017105 0
0.798694 0.017309 0
0.798823 0.017470 0
0.798982 0.017575 0
0.799132 0.017639 0
0.799259 0.017678 0
0.799365 0.017706 0
0.799456 0.017732 0
0.799592 0.017681 0
0.799664 0.017708 0
0.799750 0.017739 0
0.799865 0.017774 0
0.800028 0.017803 0
0.800256 0.017805 0
0.800535 0.017740 0
0.800789 0.017575 0
0.800886 0.017342 0
0.800786 0.017137 0
0.800599 0.017011 0
0.800413 0.016943 0
0.800294 0.016922 0
0.800038 0.016861 0
0.800678 0.017076 0
0.796919 0.016563 0
0.799162 0.016934 0
0.800067 0.016752 0
0.799739 0.016843 0
0.799701 0.016801 0
0.799550 0.016798 0
0.799370 0.016803 0
0.799153 0.016854 0
0.798958 0.016969 0
0.798863 0.017140 0
0.798894 0.017313 0
0.799005 0.017447 0
0.799139 0.017534 0
0.799263 0.017585 0
0.799367 0.017617 0
0.799452 0.017639 0
0.799525 0.017659 0
0.799634 0.017619 0
0.799691 0.017639 0
0.799759 0.017664 0
0.799851 0.017690 0
0.799981 0.017712 0
0.800162 0.017711 0
0.800384 0.017656 0
0.800587 0.017521 0
0.800666 0.017331 0
0.800589 0.017162 0
0.800441 0.017055 0
0.800292 0.016995 0
0.800200 0.016975 0
0.799985 0.016919 0
0.800535 0.017101 0
0.797412 0.016670 0
0.799295 0.016977 0
0.800022 0.016828 0
0.799760 0.016903 0
0.799730 0.016869 0
0.799607 0.016868 0
0.799458 0.016874 0
0.799276 0.016919 0
0.799112 0.017020 0
0.799034 0.017167 0
0.799063 0.017315 0
0.799158 0.017427 0
0.799269 0.017498 0
0.799370 0.017541 0
0.799454 0.017567 0
0.799523 0.017585 0
0.799581 0.017601 0
0.799667 0.017569 0
0.799712 0.017586 0
0.799765 0.017605 0
0.799838 0.017625 0
0.799941 0.017640 0
0.800084 0.017636 0
0.800261 0.017589 0
0.800422 0.017478 0
0.800485 0.017321 0
0.800425 0.017180 0
0.800309 0.017088 0
0.800190 0.017034 0
0.800119 0.017016 0
0.799940 0.016965 0
0.800410 0.017117 0
0.797819 0.016756 0
0.799400 0.017009 0
0.799985 0.016889 0
0.799777 0.016950 0
0.799755 0.016923 0
0.799656 0.016924 0
0.799535 0.016932 0
0.799384 0.016973 0
0.799247 0.017062 0
0.799182 0.017190 0
0.799207 0.017316 0
0.799285 0.017410 0
0.799376 0.017470 0
0.799458 0.017505 0
0.799526 0.017527 0
0.799580 0.017542 0
0.799626 0.017555 0
0.799694 0.017531 0
0.799728 0.017544 0
0.799769 0.017559 0
0.799825 0.017573 0
0.799906 0.017584 0
0.800019 0.017578 0
0.800159 0.017537 0
0.800285 0.017444 0
0.800334 0.017313 0
0.800288 0.017192 0
0.800196 0.017112 0
0.800102 0.017063 0
0.800049 0.017045 0
0.799902 0.016999 0
0.800303 0.017125 0
0.798156 0.016824 0
0.799482 0.017033 0
0.799954 0.016935 0
0.799791 0.016985 0
0.799776 0.016965 0
0.799700 0.016968 0
0.799604 0.016978 0
0.799480 0.017017 0
0.799367 0.017098 0
0.799310 0.017210 0
0.799329 0.017317 0
0.799393 0.017397 0
0.799466 0.017447 0
0.799531 0.017477 0
0.799585 0.017495 0
0.799627 0.017508 0
0.799663 0.017519 0
0.799717 0.017502 0
0.799741 0.017513 0
0.799772 0.017524 0
0.799815 0.017534 0
0.799877 0.017541 0
0.799965 0.017534 0
0.800074 0.017497 0
0.800171 0.017419 0
0.800205 0.017305 0
0.800169 0.017200 0
0.800098 0.017128 0
0.800026 0.017082 0
0.799988 0.017064 0
0.799869 0.017023 0
0.800211 0.017128 0
0.798435 0.016876 0
0.799547 0.017048 0
0.799929 0.016969 0
0.799802 0.017011 0
0.799796 0.016996 0
0.799740 0.017001 0
0.799667 0.017014 0
0.799568 0.017052 0
0.799478 0.017127 0
0.799424 0.017228 0
0.799434 0.017319 0
0.799484 0.017387 0
0.799542 0.017429 0
0.799593 0.017455 0
0.799635 0.017471 0
0.799667 0.017483 0
0.799693 0.017493 0
0.799736 0.017482 0
0.799753 0.017490 0
0.799775 0.017498 0
0.799806 0.017506 0
0.799852 0.017509 0
0.799919 0.017501 0
0.800002 0.017468 0
0.800072 0.017402 0
0.800090 0.017301 0
0.800064 0.017204 0
0.800012 0.017137 0
0.799960 0.017093 0
0.799937 0.017076 0
0.799842 0.017038 0
0.800134 0.017126 0
0.798664 0.016916 0
0.799598 0.017057 0
0.799907 0.016994 0
0.799811 0.017027 0
0.799813 0.017017 0
0.799777 0.017024 0
0.799728 0.017040 0
0.799655 0.017080 0
0.799587 0.017154 0
0.799529 0.017248 0
0.799527 0.017322 0
0.799563 0.017380 0
0.799608 0.017416 0
0.799647 0.017439 0
0.799678 0.017453 0
0.799702 0.017464 0
0.799720 0.017473 0
0.799753 0.017468 0
0.799764 0.017475 0
0.799777 0.017481 0
0.799798 0.017486 0
0.799830 0.017487 0
0.799878 0.017477 0
0.799939 0.017447 0
0.799983 0.017393 0
0.799981 0.017297 0
0.799966 0.017203 0
0.799934 0.017139 0
0.799903 0.017097 0
0.799896 0.017080 0
0.799820 0.017045 0
0.800073 0.017122 0
0.798846 0.016946 0
0.799636 0.017058 0
0.799887 0.017010 0
0.799817 0.017037 0
0.799830 0.017030 0
0.799815 0.017038 0
0.799790 0.017055 0
0.799746 0.017097 0
0.799702 0.017177 0
0.799629 0.017271 0
0.799610 0.017327 0
0.799634 0.017375 0
0.799666 0.017407 0
0.799694 0.017428 0
0.799715 0.017442 0
0.799731 0.017452 0
0.799743 0.017460 0
0.799770 0.017460 0