# vtk DataFile Version 2.0
test.vtk 
ASCII
DATASET UNSTRUCTURED_GRID
POINTS 2000 float
0.000000 0.000000 0
1.000000 0.000000 0
1.000000 1.000000 0
0.000000 1.000000 0
0.001001 0.000000 0
0.002002 0.000000 0
0.003003 0.000000 0
0.004004 0.000000 0
0.005005 0.000000 0
0.006006 0.000000 0
0.007007 0.000000 0
0.008008 0.000000 0
0.009009 0.000000 0
0.010010 0.000000 0
0.011011 0.000000 0
0.012012 0.000000 0
0.013013 0.000000 0
0.014014 0.000000 0
0.015015 0.000000 0
0.016016 0.000000 0
0.017017 0.000000 0
0.018018 0.000000 0
0.019019 0.000000 0
0.020020 0.000000 0
0.021021 0.000000 0
0.022022 0.000000 0
0.023023 0.000000 0
0.024024 0.000000 0
0.025025 0.000000 0
0.026026 0.000000 0
0.027027 0.000000 0
0.028028 0.000000 0
0.029029 0.000000 0
0.030030 0.000000 0
0.031031 0.000000 0
0.032032 0.000000 0
0.033033 0.000000 0
0.034034 0.000000 0
0.035035 0.000000 0
0.036036 0.000000 0
0.037037 0.000000 0
0.038038 0.000000 0
0.039039 0.000000 0
0.040040 0.000000 0
0.041041 0.000000 0
0.042042 0.000000 0
0.043043 0.000000 0
0.044044 0.000000 0
0.045045 0.000000 0
0.046046 0.000000 0
0.047047 0.000000 0
0.048048 0.000000 0
0.049049 0.000000 0
0.050050 0.000000 0
0.051051 0.000000 0
0.052052 0.000000 0
0.053053 0.000000 0
0.054054 0.000000 0
0.055055 0.000000 0
0.056056 0.000000 0
0.057057 0.000000 0
0.058058 0.000000 0
0.059059 0.000000 0
0.060060 0.000000 0
0.061061 0.000000 0
0.062062 0.000000 0
0.063063 0.000000 0
0.064064 0.000000 0
0.065065 0.000000 0
0.066066 0.000000 0
0.067067 0.000000 0
0.068068 0.000000 0
0.069069 0.000000 0
0.070070 0.000000 0
0.071071 0.000000 0
0.072072 0.000000 0
0.073073 0.000000 0
0.074074 0.000000 0
0.075075 0.000000 0
0.076076 0.000000 0
0.077077 0.000000 0
0.078078 0.000000 0
0.079079 0.000000 0
0.080080 0.000000 0
0.081081 0.000000 0
0.082082 0.000000 0
0.083083 0.000000 0
0.084084 0.000000 0
0.085085 0.000000 0
0.086086 0.000000 0
0.087087 0.000000 0
0.088088 0.000000 0
0.089089 0.000000 0
0.090090 0.000000 0
0.091091 0.000000 0
0.092092 0.000000 0
0.093093 0.000000 0
0.094094 0.000000 0
0.095095 0.000000 0
0.096096 0.000000 0
0.097097 0.000000 0
0.098098 0.000000 0
0.099099 0.000000 0
0.100100 0.000000 0
0.101101 0.000000 0
0.102102 0.000000 0
0.103103 0.000000 0
0.104104 0.000000 0
0.105105 0.000000 0
0.106106 0.000000 0
0.107107 0.000000 0
0.108108 0.000000 0
0.109109 0.000000 0
0.110110 0.000000 0
0.111111 0.000000 0
0.112112 0.000000 0
0.113113 0.000000 0
0.114114 0.000000 0
0.115115 0.000000 0
0.116116 0.000000 0
0.117117 0.000000 0
0.118118 0.000000 0
0.119119 0.000000 0
0.120120 0.000000 0
0.121121 0.000000 0
0.122122 0.000000 0
0.123123 0.000000 0
0.124124 0.000000 0
0.125125 0.000000 0
0.126126 0.000000 0
0.127127 0.000000 0
0.128128 0.000000 0
0.129129 0.000000 0
0.130130 0.000000 0
0.131131 0.000000 0
0.132132 0.000000 0
0.133133 0.000000 0
0.134134 0.000000 0
0.135135 0.000000 0
0.136136 0.000000 0
0.137137 0.000000 0
0.138138 0.000000 0
0.139139 0.000000 0
0.140140 0.000000 0
0.141141 0.000000 0
0.142142 0.000000 0
0.143143 0.000000 0
0.144144 0.000000 0
0.145145 0.000000 0
0.146146 0.000000 0
0.147147 0.000000 0
0.148148 0.000000 0
0.149149 0.000000 0
0.150150 0.000000 0
0.151151 0.000000 0
0.152152 0.000000 0
0.153153 0.000000 0
0.154154 0.000000 0
0.155155 0.000000 0
0.156156 0.000000 0
0.157157 0.000000 0
0.158158 0.000000 0
0.159159 0.000000 0
0.160160 0.000000 0
0.161161 0.000000 0
0.162162 0.000000 0
0.163163 0.000000 0
0.164164 0.000000 0
0.165165 0.000000 0
0.166166 0.000000 0
0.167167 0.000000 0
0.168168 0.000000 0
0.169169 0.000000 0
0.170170 0.000000 0
0.171171 0.000000 0
0.172172 0.000000 0
0.173173 0.000000 0
0.174174 0.000000 0
0.175175 0.000000 0
0.176176 0.000000 0
0.177177 0.000000 0
0.178178 0.000000 0
0.179179 0.000000 0
0.180180 0.000000 0
0.181181 0.000000 0
0.182182 0.000000 0
0.183183 0.000000 0
0.184184 0.000000 0
0.185185 0.000000 0
0.186186 0.000000 0
0.187187 0.000000 0
0.188188 0.000000 0
0.189189 0.000000 0
0.190190 0.000000 0
0.191191 0.000000 0
0.192192 0.000000 0
0.193193 0.000000 0
0.194194 0.000000 0
0.195195 0.000000 0
0.196196 0.000000 0
0.197197 0.000000 0
0.198198 0.000000 0
0.199199 0.000000 0
0.200200 0.000000 0
0.201201 0.000000 0
0.202202 0.000000 0
0.203203 0.000000 0
0.204204 0.000000 0
0.205205 0.000000 0
0.206206 0.000000 0
0.207207 0.000000 0
0.208208 0.000000 0
0.209209 0.000000 0
0.210210 0.000000 0
0.211211 0.000000 0
0.212212 0.000000 0
0.213213 0.000000 0
0.214214 0.000000 0
0.215215 0.000000 0
0.216216 0.000000 0
0.217217 0.000000 0
0.218218 0.000000 0
0.219219 0.000000 0
0.220220 0.000000 0
0.221221 0.000000 0
0.222222 0.000000 0
0.223223 0.000000 0
0.224224 0.000000 0
0.225225 0.000000 0
0.226226 0.000000 0
0.227227 0.000000 0
0.228228 0.000000 0
0.229229 0.000000 0
0.230230 0.000000 0
0.231231 0.000000 0
0.232232 0.000000 0
0.233233 0.000000 0
0.234234 0.000000 0
0.235235 0.000000 0
0.236236 0.000000 0
0.237237 0.000000 0
0.238238 0.000000 0
0.239239 0.000000 0
0.240240 0.000000 0
0.241241 0.000000 0
0.242242 0.000000 0
0.243243 0.000000 0
0.244244 0.000000 0
0.245245 0.000000 0
0.246246 0.000000 0
0.247247 0.000000 0
0.248248 0.000000 0
0.249249 0.000000 0
0.250250 0.000000 0
0.251251 0.000000 0
0.252252 0.000000 0
0.253253 0.000000 0
0.254254 0.000000 0
0.255255 0.000000 0
0.256256 0.000000 0
0.257257 0.000000 0
0.258258 0.000000 0
0.259259 0.000000 0
0.260260 0.000000 0
0.261261 0.000000 0
0.262262 0.000000 0
0.263263 0.000000 0
0.264264 0.000000 0
0.265265 0.000000 0
0.266266 0.000000 0
0.267267 0.000000 0
0.268268 0.000000 0
0.269269 0.000000 0
0.270270 0.000000 0
0.271271 0.000000 0
0.272272 0.000000 0
0.273273 0.000000 0
0.274274 0.000000 0
0.275275 0.000000 0
0.276276 0.000000 0
0.277277 0.000000 0
0.278278 0.000000 0
0.279279 0.000000 0
0.280280 0.000000 0
0.281281 0.000000 0
0.282282 0.000000 0
0.283283 0.000000 0
0.284284 0.000000 0
0.285285 0.000000 0
0.286286 0.000000 0
0.287287 0.000000 0
0.288288 0.000000 0
0.289289 0.000000 0
0.290290 0.000000 0
0.291291 0.000000 0
0.292292 0.000000 0
0.293293 0.000000 0
0.294294 0.000000 0
0.295295 0.000000 0
0.296296 0.000000 0
0.297297 0.000000 0
0.298298 0.000000 0
0.299299 0.000000 0
0.300300 0.000000 0
0.301301 0.000000 0
0.302302 0.000000 0
0.303303 0.000000 0
0.304304 0.000000 0
0.305305 0.000000 0
0.306306 0.000000 0
0.307307 0.000000 0
0.308308 0.000000 0
0.309309 0.000000 0
0.310310 0.000000 0
0.311311 0.000000 0
0.312312 0.000000 0
0.313313 0.000000 0
0.314314 0.000000 0
0.315315 0.000000 0
0.316316 0.000000 0
0.317317 0.000000 0
0.318318 0.000000 0
0.319319 0.000000 0
0.320320 0.000000 0
0.321321 0.000000 0
0.322322 0.000000 0
0.323323 0.000000 0
0.324324 0.000000 0
0.325325 0.000000 0
0.326326 0.000000 0
0.327327 0.000000 0
0.328328 0.000000 0
0.329329 0.000000 0
0.330330 0.000000 0
0.331331 0.000000 0
0.332332 0.000000 0
0.333333 0.000000 0
0.334334 0.000000 0
0.335335 0.000000 0
0.336336 0.000000 0
0.337337 0.000000 0
0.338338 0.000000 0
0.339339 0.000000 0
0.340340 0.000000 0
0.341341 0.000000 0
0.342342 0.000000 0
0.343343 0.000000 0
0.344344 0.000000 0
0.345345 0.000000 0
0.346346 0.000000 0
0.347347 0.000000 0
0.348348 0.000000 0
0.349349 0.000000 0
0.350350 0.000000 0
0.351351 0.000000 0
0.352352 0.000000 0
0.353353 0.000000 0
0.354354 0.000000 0
0.355355 0.000000 0
0.356356 0.000000 0
0.357357 0.000000 0
0.358358 0.000000 0
0.359359 0.000000 0
0.360360 0.000000 0
0.361361 0.000000 0
0.362362 0.000000 0
0.363363 0.000000 0
0.364364 0.000000 0
0.365365 0.000000 0
0.366366 0.000000 0
0.367367 0.000000 0
0.368368 0.000000 0
0.369369 0.000000 0
0.370370 0.000000 0
0.371371 0.000000 0
0.372372 0.000000 0
0.373373 0.000000 0
0.374374 0.000000 0
0.375375 0.000000 0
0.376376 0.000000 0
0.377377 0.000000 0
0.378378 0.000000 0
0.379379 0.000000 0
0.380380 0.000000 0
0.381381 0.000000 0
0.382382 0.000000 0
0.383383 0.000000 0
0.384384 0.000000 0
0.385385 0.000000 0
0.386386 0.000000 0
0.387387 0.000000 0
0.388388 0.000000 0
0.389389 0.000000 0
0.390390 0.000000 0
0.391391 0.000000 0
0.392392 0.000000 0
0.393393 0.000000 0
0.394394 0.000000 0
0.395395 0.000000 0
0.396396 0.000000 0
0.397397 0.000000 0
0.398398 0.000000 0
0.399399 0.000000 0
0.400400 0.000000 0
0.401401 0.000000 0
0.402402 0.000000 0
0.403403 0.000000 0
0.404404 0.000000 0
0.405405 0.000000 0
0.406406 0.000000 0
0.407407 0.000000 0
0.408408 0.000000 0
0.409409 0.000000 0
0.410410 0.000000 0
0.411411 0.000000 0
0.412412 0.000000 0
0.413413 0.000000 0
0.414414 0.000000 0
0.415415 0.000000 0
0.416416 0.000000 0
0.417417 0.000000 0
0.418418 0.000000 0
0.419419 0.000000 0
0.420420 0.000000 0
0.421421 0.000000 0
0.422422 0.000000 0
0.423423 0.000000 0
0.424424 0.000000 0
0.425425 0.000000 0
0.426426 0.000000 0
0.427427 0.000000 0
0.428428 0.000000 0
0.429429 0.000000 0
0.430430 0.000000 0
0.431431 0.000000 0
0.432432 0.000000 0
0.433433 0.000000 0
0.434434 0.000000 0
0.435435 0.000000 0
0.436436 0.000000 0
0.437437 0.000000 0
0.438438 0.000000 0
0.439439 0.000000 0
0.440440 0.000000 0
0.441441 0.000000 0
0.442442 0.000000 0
0.443443 0.000000 0
0.444444 0.000000 0
0.445445 0.000000 0
0.446446 0.000000 0
0.447447 0.000000 0
0.448448 0.000000 0
0.449449 0.000000 0
0.450450 0.000000 0
0.451451 0.000000 0
0.452452 0.000000 0
0.453453 0.000000 0
0.454454 0.000000 0
0.455455 0.000000 0
0.456456 0.000000 0
0.457457 0.000000 0
0.458458 0.000000 0
0.459459 0.000000 0
0.460460 0.000000 0
0.461461 0.000000 0
0.462462 0.000000 0
0.463463 0.000000 0
0.464464 0.000000 0
0.465465 0.000000 0
0.466466 0.000000 0
0.467467 0.000000 0
0.468468 0.000000 0
0.469469 0.000000 0
0.470470 0.000000 0
0.471471 0.000000 0
0.472472 0.000000 0
0.473473 0.000000 0
0.474474 0.000000 0
0.475475 0.000000 0
0.476476 0.000000 0
0.477477 0.000000 0
0.478478 0.000000 0
0.479479 0.000000 0
0.480480 0.000000 0
0.481481 0.000000 0
0.482482 0.000000 0
0.483483 0.000000 0
0.484484 0.000000 0
0.485485 0.000000 0
0.486486 0.000000 0
0.487487 0.000000 0
0.488488 0.000000 0
0.489489 0.000000 0
0.490490 0.000000 0
0.491491 0.000000 0
[...]
CELL_DATA 999
VECTORS U float
0.000000 0.000000 0
0.000000 0.000000 0
0.000000 0.000000 0
0.000000 0.000000 0
0.000000 0.000000 0
0.000000 0.000000 0
0.000000 0.000000 0
0.000000 0.000000 0
0.000000 0.000000 0
0.000000 0.000000 0
0.000000 0.000000 0
0.000000 0.000000 0
0.000000 0.000000 0
0.000000 0.000000 0
0.000000 0.000000 0
0.000000 0.000000 0
0.000000 0.000000 0
0.000000 0.000000 0
0.000000 0.000000 0
0.000000 0.000000 0
0.000000 0.000000 0
0.000000 0.000000 0
0.000000 0.000000 0
0.000000 0.000000 0
0.000000 0.000000 0
0.000000 0.000000 0
0.000000 0.000000 0
0.000000 0.000000 0
0.000000 0.000000 0
0.000000 0.000000 0
0.000000 0.000000 0
0.000000 0.000000 0
0.000000 0.000000 0
0.000000 0.000000 0
0.000000 0.000000 0
0.000000 0.000000 0
0.000000 0.000000 0
0.000000 0.000000 0
0.000000 0.000000 0
0.000000 0.000000 0
0.000000 0.000000 0
0.000000 0.000000 0
0.000000 0.000000 0
0.000000 0.000000 0
0.000000 0.000000 0
0.000000 0.000000 0
0.000000 0.000000 0
0.000000 0.000000 0
0.000000 0.000000 0
0.000000 0.000000 0
0.000000 0.000000 0
0.000000 0.000000 0
0.000000 0.000000 0
0.000000 0.000000 0
0.000000 0.000000 0
0.000000 0.000000 0
0.000000 0.000000 0
0.000000 0.000000 0
0.000000 0.000000 0
0.000000 0.000000 0
0.000000 0.000000 0
0.000000 0.000000 0
0.000000 0.000000 0
0.000000 0.000000 0
0.000000 0.000000 0
0.000000 0.000000 0
0.000000 0.000000 0
0.000000 0.000000 0
0.000000 0.000000 0
0.000000 0.000000 0
0.000000 0.000000 0
0.000000 0.000000 0
0.000000 0.000000 0
0.000000 0.000000 0
0.000000 0.000000 0
0.000000 0.000000 0
0.000000 0.000000 0
0.000000 0.000000 0
0.000000 0.000000 0
0.000000 0.000000 0
0.000000 0.000000 0
0.000000 0.000000 0
0.000000 0.000000 0
0.000000 0.000000 0
0.000000 0.000000 0
0.000000 0.000000 0
0.000000 0.000000 0
0.000000 0.000000 0
0.000000 0.000000 0
0.000000 0.000000 0
0.000000 0.000000 0
0.000000 0.000000 0
0.000000 0.000000 0
0.000000 0.000000 0
0.000000 0.000000 0
0.000000 0.000000 0
0.000000 0.000000 0
0.000000 0.000000 0
0.000000 0.000000 0
0.000000 0.000000 0
0.000000 0.000000 0
0.000000 0.000000 0
0.000000 0.000000 0
0.000000 0.000000 0
0.000000 0.000000 0
0.000000 0.000000 0
0.000000 0.000000 0
0.000000 0.000000 0
0.000000 0.000000 0
0.000000 0.000000 0
0.000000 0.000000 0
0.000000 0.000000 0
0.000000 0.000000 0
0.000000 0.000000 0
0.000000 0.000000 0
0.000000 0.000000 0
0.000000 0.000000 0
0.000000 0.000000 0
0.000000 0.000000 0
0.000000 0.000000 0
0.000000 0.000000 0
0.000000 0.000000 0
0.000000 0.000000 0
0.000000 0.000000 0
0.000000 0.000000 0
0.000000 0.000000 0
0.000000 0.000000 0
0.000000 0.000000 0
0.000000 0.000000 0
0.000000 0.000000 0
0.000000 0.000000 0
0.000000 0.000000 0
0.000000 0.000000 0
0.000000 0.000000 0
0.000000 0.000000 0
0.000000 0.000000 0
0.000000 0.000000 0
0.000000 0.000000 0
0.000000 0.000000 0
0.000000 0.000000 0
0.000000 0.000000 0
0.000000 0.000000 0
0.000000 0.000000 0
0.000000 0.000000 0
0.000000 0.000000 0
0.000000 0.000000 0
0.000000 0.000000 0
0.000000 0.000000 0
0.000000 0.000000 0
0.000000 0.000000 0
0.000000 0.000000 0
0.000000 0.000000 0
0.000000 0.000000 0
0.000000 0.000000 0
0.000000 0.000000 0
0.000000 0.000000 0
0.000000 0.000000 0
0.000000 0.000000 0
0.000000 0.000000 0
0.000000 0.000000 0
0.000000 0.000000 0
0.000000 0.000000 0
0.000000 0.000000 0
0.000000 0.000000 0
0.000000 0.000000 0
0.000000 0.000000 0
0.000000 0.000000 0
0.000000 0.000000 0
0.000000 0.000000 0
0.000000 0.000000 0
0.000000 0.000000 0
0.000000 0.000000 0
0.000000 0.000000 0
0.000000 0.000000 0
0.000000 0.000000 0
0.000000 0.000000 0
0.000000 0.000000 0
0.000000 0.000000 0
0.000000 0.000000 0
0.000000 0.000000 0
0.000000 0.000000 0
0.000000 0.000000 0
0.000000 0.000000 0
0.000000 0.000000 0
0.000000 0.000000 0
0.000000 0.000000 0
0.000000 0.000000 0
0.000000 0.000000 0
0.000000 -0.000000 0
0.000000 -0.000000 0
0.000000 -0.000000 0
0.000001 -0.000000 0
0.000001 -0.000000 0
0.000001 -0.000000 0
0.000001 -0.000000 0
0.000002 -0.000000 0
0.000002 -0.000000 0
0.000003 -0.000000 0
0.000003 -0.000000 0
0.000004 -0.000000 0
0.000006 -0.000000 0
0.000007 -0.000000 0
0.000009 -0.000000 0
0.000012 -0.000000 0
0.000015 -0.000000 0
0.000018 -0.000000 0
0.000023 -0.000000 0
0.000029 -0.000000 0
0.000036 -0.000000 0
0.000045 -0.000000 0
0.000056 -0.000000 0
0.000069 -0.000000 0
0.000085 -0.000000 0
0.000104 -0.000000 0
0.000127 -0.000000 0
0.000154 -0.000000 0
0.000187 -0.000000 0
0.000226 -0.000000 0
0.000273 -0.000000 0
0.000327 -0.000000 0
0.000391 -0.000000 0
0.000466 -0.000000 0
0.000553 -0.000000 0
0.000655 -0.000000 0
0.000772 -0.000000 0
0.000907 -0.000000 0
0.001062 -0.000000 0
0.001239 -0.000000 0
0.001440 -0.000000 0
0.001668 -0.000000 0
0.001926 -0.000000 0
0.002215 -0.000000 0
0.002540 -0.000000 0
0.002903 -0.000000 0
0.003306 -0.000000 0
0.003752 -0.000000 0
0.004246 -0.000000 0
0.004788 -0.000000 0
0.005382 -0.000000 0
0.006031 -0.000000 0
0.006738 -0.000000 0
0.007504 -0.000000 0
0.008332 -0.000000 0
0.009225 -0.000000 0
0.010184 -0.000000 0
0.011211 -0.000000 0
0.012308 -0.000000 0
0.013475 -0.000000 0
0.014715 -0.000000 0
0.016027 -0.000000 0
0.017413 -0.000000 0
0.018873 -0.000000 0
0.020408 -0.000000 0
0.022016 -0.000000 0
0.023698 -0.000000 0
0.025453 -0.000000 0
0.027282 -0.000000 0
0.029182 -0.000000 0
0.031154 -0.000000 0
0.033196 -0.000000 0
0.035306 -0.000000 0
0.037484 -0.000000 0
0.039729 -0.000000 0
0.042037 -0.000000 0
0.044410 -0.000000 0
0.046843 -0.000000 0
0.049337 -0.000000 0
0.051889 -0.000000 0
0.054497 -0.000000 0
0.057160 -0.000000 0
0.059876 -0.000000 0
0.062644 -0.000000 0
0.065461 -0.000000 0
0.068326 -0.000000 0
0.071238 -0.000000 0
0.074194 -0.000000 0
0.077193 -0.000000 0
0.080234 -0.000000 0
0.083315 -0.000000 0
0.086434 -0.000000 0
0.089591 -0.000000 0
0.092783 -0.000000 0
0.096010 -0.000000 0
0.099269 -0.000000 0
0.102561 -0.000000 0
0.105883 -0.000000 0
0.109234 -0.000000 0
0.112613 -0.000000 0
0.116020 -0.000000 0
0.119452 -0.000000 0
0.122910 -0.000000 0
0.126391 -0.000000 0
0.129896 -0.000000 0
0.133423 -0.000000 0
0.136971 -0.000000 0
0.140540 -0.000000 0
0.144129 -0.000000 0
0.147737 -0.000000 0
0.151363 -0.000000 0
0.155006 -0.000000 0
0.158667 -0.000000 0
0.162343 -0.000000 0
0.166036 -0.000000 0
0.169743 -0.000000 0
0.173465 -0.000000 0
0.177201 -0.000000 0
0.180951 -0.000000 0
0.184713 -0.000000 0
0.188489 -0.000000 0
0.192276 -0.000000 0
0.196075 -0.000000 0
0.199885 -0.000000 0
0.203706 -0.000000 0
0.207537 -0.000000 0
0.211379 -0.000000 0
0.215230 -0.000000 0
0.219091 -0.000000 0
0.222961 -0.000000 0
0.226840 -0.000000 0
0.230727 -0.000000 0
0.234622 -0.000000 0
0.238526 -0.000000 0
0.242437 -0.000000 0
0.246356 -0.000000 0
0.250282 -0.000000 0
0.254215 -0.000000 0
0.258155 -0.000000 0
0.262101 -0.000000 0
0.266054 -0.000000 0
0.270013 -0.000000 0
0.273978 -0.000000 0
0.277949 -0.000000 0
0.281925 -0.000000 0
0.285907 -0.000000 0
0.289895 -0.000000 0
0.293887 -0.000000 0
0.297885 -0.000000 0
0.301887 -0.000000 0
0.305895 -0.000000 0
0.309907 -0.000000 0
0.313923 -0.000000 0
0.317944 -0.000000 0
0.321969 -0.000000 0
0.325998 -0.000000 0
0.330032 -0.000000 0
0.334069 -0.000000 0
0.338110 -0.000000 0
0.342155 -0.000000 0
0.346203 -0.000000 0
0.350255 -0.000000 0
0.354311 -0.000000 0
0.358370 -0.000000 0
0.362432 -0.000000 0
0.366497 -0.000000 0
0.370566 -0.000000 0
0.374638 -0.000000 0
0.378713 -0.000000 0
0.382790 -0.000000 0
0.386871 -0.000000 0
0.390954 -0.000000 0
0.395040 -0.000000 0
0.399129 -0.000000 0
0.403220 -0.000000 0
0.407314 -0.000000 0
0.411411 -0.000000 0
0.415510 -0.000000 0
0.419611 -0.000000 0
0.423715 -0.000000 0
0.427821 -0.000000 0
0.431929 -0.000000 0
0.436039 -0.000000 0
0.440152 -0.000000 0
0.444267 -0.000000 0
0.448384 -0.000000 0
0.452502 -0.000000 0
0.456623 -0.000000 0
0.460746 -0.000000 0
0.464871 -0.000000 0
0.468998 -0.000000 0
0.473126 -0.000000 0
0.477257 -0.000000 0
0.481389 -0.000000 0
0.485523 -0.000000 0
0.489659 -0.000000 0
0.493796 -0.000000 0
0.497935 -0.000000 0
0.502076 -0.000000 0
0.506218 -0.000000 0
0.510362 -0.000000 0
0.514507 -0.000000 0
0.518654 -0.000000 0
0.522803 -0.000000 0
0.526953 -0.000000 0
0.531104 -0.000000 0
0.535257 -0.000000 0
0.539411 -0.000000 0
0.543567 -0.000000 0
0.547724 -0.000000 0
0.551882 -0.000000 0
0.556042 -0.000000 0
0.560203 -0.000000 0
0.564365 -0.000000 0
0.568528 -0.000000 0
0.572693 -0.000000 0
0.576859 -0.000000 0
0.581026 -0.000000 0
0.585194 -0.000000 0
0.589364 -0.000000 0
0.593535 -0.000000 0
0.597706 -0.000000 0
0.601879 -0.000000 0
0.606053 -0.000000 0
0.610228 -0.000000 0
0.614404 -0.000000 0
0.618581 -0.000000 0
0.622760 -0.000000 0
0.626939 -0.000000 0
0.631119 -0.000000 0
0.635300 -0.000000 0
0.639482 -0.000000 0
0.643665 -0.000000 0
0.647849 -0.000000 0
0.652034 -0.000000 0
0.656220 -0.000000 0
0.660407 -0.000000 0
0.664594 -0.000000 0
0.668782 -0.000000 0
0.672972 -0.000000 0
0.677161 -0.000000 0
0.681352 -0.000000 0
0.685544 -0.000000 0
0.689736 -0.000000 0
0.693929 -0.000000 0
0.698123 -0.000000 0
0.702317 -0.000000 0
0.706512 -0.000000 0
0.710708 -0.000000 0
0.714904 -0.000000 0
0.719101 -0.000000 0
0.723298 -0.000000 0
0.727496 -0.000000 0
0.731694 -0.000000 0
0.735893 -0.000000 0
0.740092 -0.000000 0
0.744292 -0.000000 0
0.748492 -0.000000 0
0.752692 -0.000000 0
0.756892 -0.000000 0
0.761093 -0.000000 0
0.765294 -0.000000 0
0.769494 -0.000000 0
0.773695 -0.000000 0
0.777896 -0.000000 0
0.782096 -0.000000 0
0.786296 -0.000000 0
0.790496 -0.000000 0
0.794695 -0.000000 0
0.798893 -0.000000 0
0.803091 -0.000000 0
0.807288 -0.000000 0
0.811483 -0.000000 0
0.815677 -0.000000 0
0.819869 -0.000000 0
0.824059 -0.000000 0
0.828246 -0.000000 0
0.832431 -0.000000 0
0.836613 -0.000000 0
0.840790 -0.000000 0
0.844963 -0.000000 0
0.849130 -0.000000 0
0.853292 -0.000000 0
0.857445 -0.000000 0
0.861590 -0.000000 0
0.865724 -0.000000 0
0.869846 -0.000000 0
0.873952 -0.000000 0
0.878040 -0.000000 0
0.882105 -0.000000 0
0.886143 -0.000000 0
0.890147 -0.000000 0
0.894108 -0.000000 0
0.898016 -0.000000 0
0.901857 -0.000000 0
0.905611 -0.000000 0
0.909255 -0.000000 0
0.912755 -0.000000 0
0.916072 -0.000000 0
0.919151 -0.000000 0
0.921929 -0.000000 0
0.924335 -0.000000 0
0.926299 -0.000000 0
0.927770 -0.000000 0
0.928741 -0.000000 0
0.929259 -0.000000 0
0.929431 -0.000000 0
0.929386 -0.000000 0
0.929240 -0.000000 0
0.929071 -0.000000 0
0.928915 -0.000000 0
0.928779 -0.000000 0
0.928664 -0.000000 0
0.928564 -0.000000 0
0.928476 -0.000000 0
0.928398 -0.000000 0
0.928328 -0.000000 0
0.928264 -0.000000 0
0.928207 -0.000000 0
0.928154 -0.000000 0
0.928106 -0.000000 0
0.928062 -0.000000 0
0.928021 -0.000000 0
0.927984 -0.000000 0
0.927950 -0.000000 0
0.927919 -0.000000 0
0.927890 -0.000000 0
0.927863 -0.000000 0
0.927838 -0.000000 0
0.927815 -0.000000 0
0.927794 -0.000000 0
0.927774 -0.000000 0
0.927756 -0.000000 0
0.927739 -0.000000 0
0.927723 -0.000000 0
0.927708 -0.000000 0
0.927695 -0.000000 0
0.927682 -0.000000 0
0.927670 -0.000000 0
0.927659 -0.000000 0
0.927649 -0.000000 0
0.927639 -0.000000 0
0.927630 -0.000000 0
0.927622 -0.000000 0
0.927614 -0.000000 0
0.927607 -0.000000 0
0.927600 -0.000000 0
0.927594 -0.000000 0
0.927588 -0.000000 0
0.927582 -0.000000 0
0.927577 -0.000000 0
0.927572 -0.000000 0
0.927567 -0.000000 0
0.927563 -0.000000 0
0.927559 -0.000000 0
0.927555 -0.000000 0
0.927551 -0.000000 0
0.927548 -0.000000 0
0.927545 -0.000000 0
0.927542 -0.000000 0
0.927539 -0.000000 0
0.927536 -0.000000 0
0.927534 -0.000000 0
0.927531 -0.000000 0
0.927529 -0.000000 0
0.927527 -0.000000 0
0.927525 -0.000000 0
0.927523 -0.000000 0
0.927521 -0.000000 0
0.927520 -0.000000 0
0.927518 -0.000000 0
0.927517 -0.000000 0
0.927515 -0.000000 0
0.927514 -0.000000 0
0.927513 -0.000000 0
0.927511 -0.000000 0
0.927510 -0.000000 0
0.927509 -0.000000 0
0.927508 -0.000000 0
0.927507 -0.000000 0
0.927506 -0.000000 0
0.927505 -0.000000 0
0.927505 -0.000000 0
0.927504 -0.000000 0
0.927503 -0.000000 0
0.927502 -0.000000 0
0.927502 -0.000000 0
0.927501 -0.000000 0
0.927501 -0.000000 0
0.927500 -0.000000 0
0.927499 -0.000000 0
0.927499 -0.000000 0
0.927499 -0.000000 0
0.927498 -0.000000 0
0.927498 -0.000000 0
0.927497 -0.000000 0
0.927497 -0.000000 0
0.927497 -0.000000 0
0.927496 -0.000000 0
0.927496 -0.000000 0
0.927496 -0.000000 0
0.927495 -0.000000 0
0.927495 -0.000000 0
0.927495 -0.000000 0
0.927494 -0.000000 0
0.927494 -0.000000 0
0.927494 -0.000000 0
0.927494 -0.000000 0
0.927494 -0.000000 0
0.927493 -0.000000 0
0.927493 -0.000000 0
0.927493 -0.000000 0
0.927493 -0.000000 0
0.927493 -0.000000 0
0.927493 -0.000000 0
0.927493 -0.000000 0
0.927493 -0.000000 0
0.927492 -0.000000 0
0.927492 -0.000000 0
0.927492 -0.000000 0
0.927492 -0.000000 0
0.927492 -0.000000 0
0.927492 -0.000000 0
0.927492 -0.000000 0
0.927492 -0.000000 0
0.927492 -0.000000 0
0.927492 -0.000000 0
0.927492 -0.000000 0
0.927492 -0.000000 0
0.927492 -0.000000 0
0.927492 -0.000000 0
0.927492 -0.000000 0
0.927492 -0.000000 0
0.927492 -0.000000 0
0.927492 -0.000000 0
0.927492 -0.000000 0
0.927492 -0.000000 0
0.927492 -0.000000 0
0.927492 -0.000000 0
0.927492 -0.000000 0
0.927492 -0.000000 0
0.927492 -0.000000 0
0.927492 -0.000000 0
0.927492 -0.000000 0
0.927492 -0.000000 0
0.927492 -0.000000 0
0.927492 -0.000000 0
0.927492 -0.000000 0
0.927492 -0.000000 0
0.927492 -0.000000 0
0.927492 -0.000000 0
0.927492 -0.000000 0
0.927492 -0.000000 0
0.927492 -0.000000 0
0.927492 -0.000000 0
0.927492 -0.000000 0
0.927492 -0.000000 0
0.927492 -0.000000 0
0.927492 -0.000000 0
0.927492 -0.000000 0
0.927492 -0.000000 0
0.927492 -0.000000 0
0.927492 -0.000000 0
0.927493 -0.000000 0
0.927493 -0.000000 0
0.927493 -0.000000 0
0.927493 -0.000000 0
0.927493 -0.000000 0
0.927493 -0.000000 0
0.927493 -0.000000 0
0.927493 -0.000000 0
0.927493 -0.000000 0
0.927493 -0.000000 0
0.927493 -0.000000 0
0.927493 -0.000000 0
0.927493 -0.000000 0
0.927493 -0.000000 0
0.927494 -0.000000 0
0.927494 -0.000000 0
0.927494 -0.000000 0
0.927494 -0.000000 0
0.927494 -0.000000 0
0.927494 -0.000000 0
0.927494 -0.000000 0
0.927494 -0.000000 0
0.927494 -0.000000 0
0.927494 -0.000000 0
0.927494 -0.000000 0
0.927495 -0.000000 0
0.927495 -0.000000 0
0.927495 -0.000000 0
0.927495 -0.000000 0
0.927495 -0.000000 0
0.927495 -0.000000 0
0.927495 -0.000000 0
0.927495 -0.000000 0
0.927495 -0.000000 0
0.927495 -0.000000 0
0.927496 -0.000000 0
0.927496 -0.000000 0
0.927496 -0.000000 0
0.927496 -0.000000 0
0.927496 -0.000000 0
0.927496 -0.000000 0
0.927496 -0.000000 0
0.927496 -0.000000 0
0.927496 -0.000000 0
0.927497 -0.000000 0
0.927497 -0.000000 0
0.927497 -0.000000 0
0.927497 -0.000000 0
0.927497 -0.000000 0
0.927497 -0.000000 0
0.927497 -0.000000 0
0.927497 -0.000000 0
0.927498 -0.000000 0
0.927498 -0.000000 0
0.927498 -0.000000 0
0.927498 -0.000000 0
0.927498 -0.000000 0
0.927498 -0.000000 0
0.927498 -0.000000 0
0.927498 -0.000000 0
0.927499 -0.000000 0
0.927499 -0.000000 0
0.927499 -0.000000 0
0.927499 -0.000000 0
0.927499 -0.000000 0
0.927499 -0.000000 0
0.927499 -0.000000 0
0.927500 -0.000000 0
0.927500 -0.000000 0
0.927500 -0.000000 0
0.927500 -0.000000 0
0.927500 -0.000000 0
0.927500 -0.000000 0
0.927500 -0.000000 0
0.927501 -0.000000 0
0.927501 -0.000000 0
0.927501 -0.000000 0
0.927501 -0.000000 0
0.927501 -0.000000 0
0.927501 -0.000000 0
0.927501 -0.000000 0
0.927502 -0.000000 0
0.927502 -0.000000 0
0.927502 -0.000000 0
0.927502 -0.000000 0
0.927502 -0.000000 0
0.927502 -0.000000 0
0.927502 -0.000000 0
0.927503 -0.000000 0
0.927503 -0.000000 0
0.927503 -0.000000 0
0.927503 -0.000000 0
0.927503 -0.000000 0
0.927503 -0.000000 0
0.927504 -0.000000 0
0.927504 -0.000000 0
0.927504 -0.000000 0
0.927504 -0.000000 0
0.927504 -0.000000 0
0.927504 -0.000000 0
0.927505 -0.000000 0
0.927505 -0.000000 0
0.927505 -0.000000 0
0.927505 -0.000000 0
0.927505 -0.000000 0
0.927506 -0.000000 0
0.927506 -0.000000 0
0.927506 -0.000000 0
0.927506 -0.000000 0
0.927506 -0.000000 0
0.927506 -0.000000 0
0.927507 -0.000000 0
0.927507 -0.000000 0
0.927507 -0.000000 0
0.927507 -0.000000 0
0.927507 -0.000000 0
0.927508 -0.000000 0
0.927508 -0.000000 0
0.927508 -0.000000 0
0.927508 -0.000000 0
0.927508 -0.000000 0
0.927509 -0.000000 0
0.927509 -0.000000 0
0.927509 -0.000000 0
0.927509 -0.000000 0
0.927509 -0.000000 0
0.927510 -0.000000 0
0.927510 -0.000000 0
0.927510 -0.000000 0
0.927510 -0.000000 0
0.927510 -0.000000 0
0.927511 -0.000000 0
0.927511 -0.000000 0
0.927511 -0.000000 0
0.927511 -0.000000 0
0.927512 -0.000000 0
0.927512 -0.000000 0
0.927512 -0.000000 0
0.927512 -0.000000 0
0.927513 -0.000000 0
0.927513 -0.000000 0
0.927513 -0.000000 0
0.927513 -0.000000 0
0.927513 -0.000000 0
0.927514 -0.000000 0
0.927514 -0.000000 0
0.927514 -0.000000 0
0.927514 -0.000000 0
0.927515 -0.000000 0
0.927515 -0.000000 0
0.927515 -0.000000 0
0.927515 -0.000000 0
0.927516 -0.000000 0
0.927516 -0.000000 0
0.927516 -0.000000 0
0.927516 -0.000000 0
0.927517 -0.000000 0
0.927517 -0.000000 0
0.927517 -0.000000 0
0.927517 -0.000000 0
0.927518 -0.000000 0
0.927518 -0.000000 0
0.927518 -0.000000 0
0.927518 -0.000000 0
0.927519 -0.000000 0
0.927519 -0.000000 0
0.927519 -0.000000 0
0.927519 -0.000000 0
0.927520 -0.000000 0
0.927520 -0.000000 0
0.927520 -0.000000 0
0.927520 -0.000000 0
0.927520 -0.000000 0
0.927519 -0.000000 0
0.927518 -0.000000 0
0.927516 -0.000000 0
0.927513 -0.000000 0
0.927508 -0.000000 0
0.927500 -0.000000 0
0.927485 -0.000000 0
0.927462 -0.000000 0
0.927424 -0.000000 0
0.927362 -0.000000 0
0.927261 -0.000000 0
0.927097 -0.000000 0
0.926829 -0.000000 0
0.926394 -0.000000 0
0.925687 -0.000000 0
0.924536 -0.000000 0
0.922667 -0.000000 0
0.919633 -0.000000 0
0.914716 -0.000000 0
0.906768 -0.000000 0
0.893971 -0.000000 0
0.873506 -0.000000 0
0.841140 -0.000000 0
0.790906 -0.000000 0
0.715386 -0.000000 0
0.607901 -0.000000 0
0.468591 -0.000000 0
0.313734 -0.000000 0
0.176456 -0.000000 0
0.083940 -0.000000 0
0.035488 -0.000000 0
0.014092 0.000000 0
0.005442 0.000000 0
0.002079 0.000000 0
0.000790 0.000000 0
0.000300 0.000000 0
0.000114 0.000000 0
0.000043 0.000000 0
0.000016 0.000000 0
0.000006 0.000000 0
0.000002 0.000000 0
0.000001 0.000000 0
0.000000 -0.000000 0
0.000000 0.000000 0
0.000000 0.000000 0
0.000000 0.000000 0
0.000000 0.000000 0
0.000000 0.000000 0
0.000000 0.000000 0
0.000000 0.000000 0
0.000000 -0.000000 0
0.000000 0.000000 0
0.000000 -0.000000 0
0.000000 0.000000 0
0.000000 0.000000 0
0.000000 0.000000 0
0.000000 -0.000000 0
0.000000 -0.000000 0
0.000000 0.000000 0
0.000000 0.000000 0
0.000000 0.000000 0
0.000000 0.000000 0
0.000000 0.000000 0
0.000000 0.000000 0
0.000000 0.000000 0
0.000000 0.000000 0
0.000000 0.000000 0
0.000000 0.000000 0
0.000000 0.000000 0
0.000000 0.000000 0
0.000000 0.000000 0
0.000000 0.000000 0
0.000000 0.000000 0
0.000000 0.000000 0
0.000000 0.000000 0
0.000000 0.000000 0
0.000000 0.000000 0
0.000000 0.000000 0
0.000000 0.000000 0
0.000000 0.000000 0
0.000000 0.000000 0
0.000000 0.000000 0
0.000000 0.000000 0
0.000000 0.000000 0
0.000000 0.000000 0
0.000000 0.000000 0
0.000000 0.000000 0
0.000000 0.000000 0
0.000000 0.000000 0
0.000000 0.000000 0
0.000000 0.000000 0
0.000000 0.000000 0
0.000000 0.000000 0
0.000000 0.000000 0
0.000000 0.000000 0
0.000000 0.000000 0
0.000000 0.000000 0
0.000000 0.000000 0
0.000000 0.000000 0
0.000000 0.000000 0
0.000000 0.000000 0
0.000000 0.000000 0
0.000000 0.000000 0
0.000000 0.000000 0
0.000000 0.000000 0
0.000000 0.000000 0
0.000000 0.000000 0
0.000000 0.000000 0
0.000000 0.000000 0
0.000000 0.000000 0
0.000000 0.000000 0
0.000000 0.000000 0
0.000000 0.000000 0
0.000000 0.000000 0
0.000000 0.000000 0
0.000000 0.000000 0
0.000000 0.000000 0
0.000000 0.000000 0
0.000000 0.000000 0
0.000000 0.000000 0
0.000000 0.000000 0
0.000000 0.000000 0
0.000000 0.000000 0
0.000000 0.000000 0
0.000000 0.000000 0
0.000000 0.000000 0
0.000000 0.000000 0
0.000000 0.000000 0
0.000000 0.000000 0
0.000000 0.000000 0
0.000000 0.000000 0
0.000000 0.000000 0
0.000000 0.000000 0
0.000000 0.000000 0
0.000000 0.000000 0
0.000000 0.000000 0
0.000000 0.000000 0
0.000000 0.000000 0
0.000000 0.000000 0
0.000000 0.000000 0