# vtk DataFile Version 2.0
circle.vtk 
ASCII
DATASET UNSTRUCTURED_GRID
POINTS 7252 float
1.000000 0.000000 0
30.000000 0.000000 0
0.996234 0.086700 0
0.985391 0.170308 0
0.968090 0.250605 0
0.944829 0.327565 0
0.915417 0.402506 0
0.879223 0.476410 0
0.837089 0.547067 0
0.790381 0.612615 0
0.738602 0.674142 0
0.680765 0.732502 0
0.618157 0.786055 0
0.552860 0.833274 0
0.484190 0.874963 0
0.410840 0.911708 0
0.334297 0.942468 0
0.257233 0.966349 0
0.178904 0.983867 0
0.097778 0.995208 0
0.015329 0.999882 0
-0.065425 0.997857 0
-0.145184 0.989405 0
-0.225556 0.974230 0
-0.305241 0.952275 0
-0.381203 0.924491 0
-0.454024 0.890990 0
-0.525218 0.850968 0
-0.593745 0.804653 0
-0.656913 0.753966 0
-0.715165 0.698955 0
-0.769742 0.638355 0
-0.819886 0.572527 0
-0.863582 0.504208 0
-0.901166 0.433475 0
-0.933449 0.358710 0
-0.959918 0.280281 0
-0.979495 0.201467 0
-0.992476 0.122440 0
-0.999143 0.041392 0
-0.999143 -0.041392 0
-0.992476 -0.122440 0
-0.979495 -0.201467 0
-0.959918 -0.280281 0
-0.933449 -0.358710 0
-0.901166 -0.433475 0
-0.863582 -0.504208 0
-0.819886 -0.572527 0
-0.769742 -0.638355 0
-0.715165 -0.698955 0
-0.656913 -0.753966 0
-0.593745 -0.804653 0
-0.525218 -0.850968 0
-0.454024 -0.890990 0
-0.381203 -0.924491 0
-0.305241 -0.952275 0
-0.225556 -0.974230 0
-0.145184 -0.989405 0
-0.065425 -0.997857 0
0.015329 -0.999882 0
0.097778 -0.995208 0
0.178904 -0.983867 0
0.257233 -0.966349 0
0.334297 -0.942468 0
0.410840 -0.911708 0
0.484190 -0.874963 0
0.552860 -0.833274 0
0.618157 -0.786055 0
0.680765 -0.732502 0
0.738602 -0.674142 0
0.790381 -0.612615 0
0.837089 -0.547067 0
0.879223 -0.476410 0
0.915417 -0.402506 0
0.944829 -0.327565 0
0.968090 -0.250605 0
0.985391 -0.170308 0
0.996234 -0.086700 0
29.911696 2.300094 0
29.647596 4.584765 0
29.209555 6.841190 0
28.600274 9.056728 0
27.823278 11.218967 0
26.882905 13.315757 0
25.784475 15.334956 0
24.535052 17.263581 0
23.141904 19.090633 0
21.612869 20.805862 0
19.956487 22.399523 0
18.183233 23.861476 0
16.303730 25.183097 0
14.328564 26.357015 0
12.268789 27.376574 0
10.136834 28.235520 0
7.946067 28.928533 0
5.708834 29.451812 0
3.437691 29.802387 0
1.145790 29.978111 0
-1.152144 29.977868 0
-3.442985 29.801776 0
-5.713872 29.450835 0
-7.951947 28.926917 0
-10.142945 28.233325 0
-12.273947 27.374262 0
-14.333008 26.354599 0
-16.308529 25.179990 0
-18.188406 23.857533 0
-19.961000 22.395501 0
-21.616413 20.802180 0
-23.145324 19.086487 0
-24.538728 17.258356 0
-25.787707 15.329520 0
-26.885252 13.311018 0
-27.825205 11.214186 0
-28.602130 9.050865 0
-29.211032 6.834880 0
-29.648445 4.579269 0
-29.911956 2.296707 0
-30.000000 -0.000000 0
-29.911956 -2.296707 0
-29.648445 -4.579269 0
-29.211032 -6.834880 0
-28.602130 -9.050865 0
-27.825205 -11.214186 0
-26.885252 -13.311018 0
-25.787707 -15.329520 0
-24.538728 -17.258356 0
-23.145324 -19.086487 0
-21.616413 -20.802180 0
-19.961000 -22.395501 0
-18.188406 -23.857533 0
-16.308529 -25.179990 0
-14.333008 -26.354599 0
-12.273947 -27.374262 0
-10.142945 -28.233325 0
-7.951947 -28.926917 0
-5.713872 -29.450835 0
-3.442985 -29.801776 0
-1.152144 -29.977868 0
1.145790 -29.978111 0
3.437691 -29.802387 0
5.708834 -29.451812 0
7.946067 -28.928533 0
10.136834 -28.235520 0
12.268789 -27.376574 0
14.328564 -26.357015 0
16.303730 -25.183097 0
18.183233 -23.861476 0
19.956487 -22.399523 0
21.612869 -20.805862 0
23.141904 -19.090633 0
24.535052 -17.263581 0
25.784475 -15.334956 0
26.882905 -13.315757 0
27.823278 -11.218967 0
28.600274 -9.056728 0
29.209555 -6.841190 0
29.647596 -4.584765 0
29.911696 -2.300094 0
-24.616070 -13.642660 0
-24.617856 13.574517 0
-1.870175 28.037585 0
-1.986624 -27.820681 0
-17.819138 21.597475 0
-17.771251 -21.665260 0
-27.863373 3.138601 0
16.290952 -22.993460 0
15.991956 23.187622 0
26.562906 -9.522035 0
26.428312 9.553796 0
6.220750 -27.023638 0
6.374278 27.252672 0
22.407530 -17.169240 0
22.256205 16.970606 0
-27.764513 -5.463687 0
-10.760508 -26.005605 0
-10.510886 26.130968 0
28.048291 -1.018596 0
27.959298 3.098301 0
24.395679 -13.279179 0
24.316613 13.434423 0
1.961915 27.969096 0
2.139601 -27.905957 0
-22.270357 16.961134 0
-22.122579 -16.860327 0
-26.534571 -9.460828 0
-26.497431 9.400287 0
-6.417353 -27.356108 0
-6.337723 27.390472 0
19.164344 19.930818 0
19.409259 -20.368898 0
10.459088 25.960082 0
10.519513 -26.101548 0
27.735217 -5.440611 0
-27.967262 -1.072117 0
-14.474216 -24.165095 0
-14.303669 24.056682 0
-16.141357 -22.954350 0
-15.839465 -20.883252 0
-17.326931 -19.590011 0
-15.505948 -18.977476 0
-16.893414 -17.719745 0
-15.137599 -17.214011 0
-13.827496 -18.321777 0
-13.587661 -16.667514 0
-14.666037 -15.650149 0
-13.277765 -15.148946 0
-12.294065 -16.099133 0
-12.020009 -14.680768 0
-12.979505 -13.765390 0
-11.718627 -13.393387 0
-10.618655 -14.314666 0
-10.567086 -12.981116 0
-11.449617 -12.229464 0
-10.367783 -11.879875 0
-9.408400 -12.698016 0
-9.390893 -11.552217 0
-10.144729 -10.887192 0
-9.198159 -10.551890 0
-9.907977 -9.950067 0
-8.478177 -11.169116 0
-9.074305 -9.633030 0
-9.718314 -9.072059 0
-8.927516 -8.808841 0
-9.525150 -8.273156 0
-8.771986 -8.016242 0
-9.347863 -7.516547 0
-8.660751 -7.270919 0
-9.172601 -6.811296 0
-8.524713 -6.577076 0
-9.016047 -6.141174 0
-8.051514 -6.987251 0
-8.419982 -5.915768 0
-8.893902 -5.501231 0
-8.306583 -5.301376 0
-8.762072 -4.899595 0
-8.203166 -4.713351 0
-8.608608 -4.333316 0
-8.096388 -4.155452 0
-7.673174 -4.529818 0
-0.944080 -0.499912 0
-8.482537 -3.788478 0
-7.955127 -3.562407 0
-8.407114 -3.222968 0
-8.951827 -3.469228 0
-8.810050 -2.877066 0
-8.333549 -2.689311 0
-9.503797 -5.790497 0
-10.274653 -8.439622 0
-9.330878 -3.041372 0
-9.211878 -2.489791 0
-9.765128 -2.660367 0
-9.639058 -2.075463 0
-10.212898 -2.263582 0
-10.080920 -1.654798 0
-10.682727 -1.849631 0
-10.538575 -1.235720 0
-9.943062 -1.048419 0
-10.388797 -0.631331 0
-9.802499 -0.455990 0
-10.241364 -0.040257 0
-9.668936 0.126589 0
-10.098043 0.540177 0
-9.525827 0.710309 0
-9.956037 1.113829 0
-9.399753 1.290469 0
-9.815921 1.680968 0
-9.260978 1.835889 0
-8.861496 1.460225 0
-8.731780 1.991600 0
-1.060205 0.086972 0
-1.057962 -0.164402 0
-8.356522 1.621760 0
-9.117804 2.370028 0
-8.595042 2.516964 0
-8.978065 2.895518 0
-8.454610 3.041290 0
-8.838821 3.421387 0
-8.312603 3.567657 0
-8.699724 3.950457 0
-8.168241 4.097127 0
-7.803410 3.710889 0
-0.943006 0.502458 0
-8.543490 4.480442 0
-8.018649 4.632477 0
-9.097621 4.301936 0
-8.396598 5.020973 0
-7.860122 5.180264 0
-8.272359 5.575850 0
-7.707406 5.736953 0
-8.127743 6.157308 0
-7.558342 6.294628 0
-7.152319 5.890044 0
-7.002058 6.426606 0
-6.619043 6.033410 0
-6.463025 6.559607 0
-6.106998 6.162593 0
-0.738311 0.783512 0
-6.845160 6.956283 0
-6.297419 7.091558 0
-6.690313 7.509008 0
-6.159788 7.656291 0
-6.533491 8.078071 0
-5.982824 8.232490 0
-10.400136 1.509384 0
-10.975764 -0.806851 0
-6.370433 8.678157 0
-5.760728 8.813367 0
-5.375550 8.258972 0
-5.155699 8.920241 0
-4.739598 8.455313 0
-4.557468 9.049756 0
-4.162635 8.612987 0
-3.978108 9.176077 0
-3.599127 8.740607 0
-3.409944 9.296738 0
-3.031554 8.867680 0
-2.842997 9.415326 0
-2.465336 8.988623 0
-2.648333 8.464971 0
-0.455227 0.981210 0
-2.116804 8.583949 0
-2.283627 8.089270 0
-1.934222 9.089067 0
-1.592319 8.688379 0
-1.408657 9.187726 0
-3.241053 9.859697 0
-5.557087 9.391489 0
-6.983163 8.525320 0
-8.716391 5.991391 0
-10.816130 -2.479605 0
-6.249696 5.669570 0
-5.771691 5.790741 0
-5.894178 5.337241 0
-5.444831 5.453980 0
-5.554350 5.019084 0
-5.139036 5.137169 0
-5.251540 4.735131 0
-4.861398 4.841156 0
-4.962014 4.465010 0
-4.609044 4.551065 0
-4.694387 4.209022 0
-4.364337 4.286816 0
-4.442488 3.966502 0
-4.132287 4.045321 0
-4.207369 3.745185 0
-3.909958 3.824709 0
-3.988468 3.534004 0
-3.706330 3.610763 0
-3.782031 3.335206 0
-3.518027 3.404176 0
-3.590521 3.141425 0
-3.337829 3.211851 0
-3.399292 2.970770 0
-3.167930 3.033514 0
-3.225840 2.808548 0
-3.000932 2.860843 0
-2.942527 3.085393 0
-3.060524 2.641230 0
-3.277466 2.590321 0
-3.120914 2.435656 0
-3.327202 2.378561 0
-3.174191 2.231690 0
-3.376566 2.172369 0
-3.226665 2.029063 0
-3.421737 1.969891 0
-3.277839 1.830299 0
-3.470055 1.770847 0
-3.328645 1.632538 0
-3.516639 1.575172 0
-3.378273 1.436217 0
-3.562619 1.380685 0
-3.425777 1.245472 0
-3.609665 1.188447 0
-3.473768 1.054117 0
-3.662712 0.998504 0
-3.520007 0.864536 0
-3.710799 0.808238 0
-3.569365 0.671227 0
-2.785826 2.926116 0
-2.725168 3.135012 0
-2.578137 2.989840 0
-2.514130 3.184031 0
-0.111420 1.062766 0
-2.371024 3.033160 0
-2.310432 3.230596 0
-2.171086 3.089160 0
-2.108436 3.269927 0
-1.972202 3.139414 0
-1.911724 3.316984 0
-1.777194 3.181026 0
-1.720105 3.369174 0
-1.586230 3.228715 0
-1.530114 3.415441 0
-1.399612 3.276549 0
-1.342501 3.460804 0
0.235637 1.041201 0
-1.208723 3.321014 0
-1.155441 3.505512 0
-1.020895 3.366019 0
-0.968335 3.546105 0
-0.843439 3.413559 0
-0.784077 3.590766 0
-0.662775 3.458500 0
-0.600826 3.640054 0
-0.452176 3.484436 0
-0.411516 3.683003 0
-0.271097 3.553170 0
-0.223948 3.726528 0
-0.094609 3.591780 0
-0.037753 3.771722 0
0.094307 3.640367 0
0.149891 3.824494 0
0.287713 3.683308 0
0.343323 3.873977 0
0.483223 3.729106 0
0.539587 3.923391 0
0.678776 3.776550 0
0.738351 3.972221 0
0.880588 3.823748 0
0.942010 4.024232 0
1.090338 3.870732 0
1.151160 4.078221 0
1.302735 3.919745 0
1.365428 4.133068 0
1.522079 3.969902 0
1.586090 4.189969 0
0.816430 0.689030 0
0.554629 0.913589 0
1.453583 3.760744 0
-1.871838 3.514542 0
-3.701099 1.494177 0
-3.757935 0.617092 0
-3.582625 0.476981 0
-3.800294 0.425406 0
-3.669893 0.290988 0
-3.854444 0.234164 0
-3.711447 0.095654 0
0.643623 3.555120 0
-3.903819 0.040120 0
-3.754709 -0.097425 0
-3.904815 0.745688 0
-3.954353 -0.156951 0
-3.806304 -0.295996 0
-4.104066 -0.012298 0
-3.052589 1.887856 0
-1.074823 3.689620 0
-0.344367 3.859343 0
0.386779 4.094128 0
1.208212 4.287652 0
-3.613107 -0.234095 0
-3.663454 -0.434516 0
-3.847669 -0.487207 0
-3.704699 -0.625236 0
-3.525614 -0.574069 0
-3.560085 -0.757913 0
-0.748321 -0.785262 0
[...]
CELL_DATA 14345
VECTORS U float
2.000000 0.000000 0
0.816147 -0.539191 0
2.000000 0.000000 0
1.645790 0.017538 0
0.590551 -0.468022 0
2.000000 0.000000 0
0.626497 -0.222512 0
1.745676 -0.000851 0
1.530568 -0.031303 0
0.715296 -0.620918 0
1.175906 -0.493278 0
2.045380 -0.394759 0
0.687387 -0.368097 0
1.639395 0.276525 0
2.096879 -0.538132 0
2.000000 -0.000000 0
0.133865 -0.063514 0
2.000000 0.000000 0
1.808355 -0.092260 0
2.000000 0.000000 0
2.000000 0.000000 0
2.000000 -0.000000 0
2.016841 -0.124499 0
2.000000 0.000000 0
-0.058107 -0.332381 0
2.000000 0.000000 0
1.869803 0.002892 0
2.067051 -0.516107 0
2.000000 -0.000000 0
1.625890 0.002350 0
1.698382 0.024178 0
2.000000 -0.000000 0
2.031987 0.315960 0
2.059985 -0.488191 0
1.866956 0.133259 0
1.854077 0.866391 0
2.042306 -0.396853 0
2.000000 -0.000000 0
0.458734 -0.405438 0
2.000000 -0.000000 0
2.000000 0.000000 0
2.000000 -0.000000 0
1.783642 -0.207777 0
2.017371 -0.124750 0
2.090899 0.881922 0
2.000000 0.000000 0
1.736042 -0.209031 0
1.633521 0.263696 0
2.000000 -0.000000 0
1.890476 -0.030203 0
2.000000 -0.000000 0
1.376500 0.434505 0
1.462782 0.401119 0
2.000000 0.000000 0
2.011799 -0.317548 0
1.806175 -0.011516 0
1.976316 -0.224715 0
2.000000 -0.000000 0
1.630857 0.260262 0
1.649783 -0.009710 0
1.184735 -0.489757 0
2.092191 -0.651087 0
1.852219 0.069708 0
1.976382 -0.224680 0
2.000000 0.000000 0
-0.101373 -0.311304 0
2.071242 0.537191 0
2.000000 -0.000000 0
2.000000 0.000000 0
2.000000 -0.000000 0
0.927774 -0.497931 0
2.000000 -0.000000 0
2.000000 -0.000000 0
2.059808 -0.489456 0
2.074773 0.524074 0
1.092592 -0.465286 0
1.813303 0.242139 0
2.000000 -0.000000 0
1.783172 0.260096 0
0.997187 -0.475381 0
2.000000 -0.000000 0
2.000000 0.000000 0
1.892321 -0.019085 0
2.000000 0.000000 0
0.027721 -0.235805 0
1.665025 0.330858 0
2.000000 -0.000000 0
2.000000 0.000000 0
2.000000 0.000000 0
2.029980 -0.318150 0
2.018460 -0.091417 0
1.719939 0.196475 0
2.000000 -0.000000 0
0.780604 -0.399255 0
2.000000 -0.000000 0
0.660765 -0.359239 0
1.569803 0.041664 0
2.000000 -0.000000 0
0.252201 -0.258796 0
1.882961 0.003350 0
1.354555 0.451369 0
2.000000 0.000000 0
2.018837 0.283659 0
1.993777 -0.034688 0
1.857615 -0.143058 0
1.618926 -0.317643 0
1.935593 0.109853 0
2.000000 0.000000 0
2.092191 -0.651087 0
1.494267 0.451898 0
2.000000 0.000000 0
0.419094 0.373960 0
0.475576 -0.423114 0
2.000000 0.000000 0
1.857705 -0.005649 0
2.093740 0.764831 0
1.736643 -0.209765 0
2.000000 -0.000000 0
-0.758318 0.138266 0
1.758447 -0.160191 0
1.671898 0.171420 0
1.870867 0.001949 0
1.485047 -0.400017 0
2.039884 -0.283540 0
2.000000 0.000000 0
0.789857 0.227127 0
2.000000 -0.000000 0
1.806312 -0.088764 0
2.000000 -0.000000 0
1.133846 0.474228 0
1.999997 0.000005 0
0.438435 0.385534 0
2.107010 -0.839829 0
1.858645 -0.144263 0
1.667146 0.273058 0
2.000000 -0.000000 0
2.000000 0.000000 0
1.607284 -0.027045 0
2.000000 -0.000000 0
1.312913 0.600570 0
0.645094 -0.476466 0
2.000000 -0.000000 0
1.745225 -0.000532 0
2.000000 0.000000 0
2.024473 -0.340966 0
2.000000 -0.000000 0
2.000000 -0.000000 0
2.000000 -0.000000 0
1.165335 -0.032421 0
2.088481 0.766793 0
1.689204 -0.332537 0
1.890925 -0.004529 0
2.000000 -0.000000 0
1.818683 -0.092223 0
2.000000 -0.000000 0
2.000000 0.000000 0
2.091478 -0.516439 0
2.011799 -0.317548 0
2.090797 -0.821456 0
1.143043 0.473169 0
1.610271 -0.287721 0
-0.682890 0.101959 0
1.769535 0.164037 0
1.854299 0.866949 0
1.614165 -0.311543 0
2.000000 -0.000000 0
1.844435 0.208816 0
1.630122 -0.325515 0
0.684776 -0.416300 0
1.850756 0.069038 0
0.260003 -0.207559 0
2.000000 -0.000000 0
2.110264 -0.690485 0
1.908645 0.108515 0
2.000000 0.000000 0
0.954861 -0.430264 0
0.792522 -0.403705 0
2.000000 -0.000000 0
2.000000 0.000000 0
0.427760 0.000688 0
1.717580 -0.006369 0
0.833572 0.475590 0
2.000000 0.000000 0
0.777911 0.014160 0
2.042312 -0.286310 0
2.000000 0.000000 0
1.168573 -0.473760 0
0.608203 0.633776 0
1.431447 0.472363 0
2.000000 -0.000000 0
1.562055 -0.323091 0
2.000000 -0.000000 0
1.825511 0.061318 0
2.016336 0.164053 0
2.000000 -0.000000 0
2.000000 -0.000000 0
2.066329 0.512931 0
2.020175 -0.342841 0
2.000000 0.000000 0
1.908105 -0.073101 0
1.785141 0.280694 0
1.810360 0.000971 0
2.000000 0.000000 0
1.814940 0.232242 0
1.963637 0.171792 0
1.245213 -0.475358 0
2.064883 -0.531783 0
2.000000 0.000000 0
2.000000 0.000000 0
2.000004 -0.000000 0
1.834564 0.000090 0
1.483981 0.432871 0
1.812666 -0.109064 0
0.854809 0.473324 0
1.810729 0.085894 0
1.975069 0.022027 0
1.670082 0.338316 0
1.321559 -0.492948 0
2.089667 -0.781120 0
2.089160 -0.906331 0
1.895022 -0.808175 0
0.433634 -0.032162 0
2.000000 0.000000 0
1.988898 -0.235333 0
1.038215 -0.443136 0
2.000000 -0.000000 0
2.000000 0.000000 0
0.920327 -0.504114 0
2.000000 -0.000000 0
2.000000 -0.000000 0
1.273223 -0.462623 0
1.538633 0.376945 0
0.720618 -0.199263 0
1.979691 0.025774 0
2.000000 0.000000 0
2.089861 0.959791 0
0.991298 -0.472462 0
1.999999 -0.000000 0
1.632111 -0.317065 0
0.076145 -0.338266 0
0.737046 0.037366 0
0.118203 -0.034654 0
1.127785 0.474461 0
1.857558 0.201184 0
1.457416 0.394099 0
1.538059 -0.383793 0
2.000000 0.000000 0
2.000000 -0.000000 0
0.774520 -0.235325 0
2.062677 0.465710 0
1.547155 0.027669 0
1.997580 -0.003789 0
2.000000 -0.000000 0
2.058192 -0.345870 0
2.000000 -0.000000 0
2.000000 -0.000000 0
1.475823 -0.465511 0
1.926633 0.089010 0
1.215523 0.633686 0
1.382218 0.510782 0
1.893664 -0.003242 0
1.038487 0.445552 0
0.900034 0.435140 0
2.000000 -0.000000 0
2.000000 -0.000000 0
2.088861 -0.906471 0
2.000000 -0.000000 0
1.610399 -0.287851 0
2.000000 -0.000000 0
2.107823 -0.692124 0
1.654536 0.260913 0
2.018916 -0.148723 0
0.637301 -0.199176 0
1.560238 -0.320956 0
2.000000 0.000000 0
2.000000 0.000000 0
1.562476 -0.353824 0
2.000000 0.000000 0
0.805241 -0.244437 0
2.000000 -0.000000 0
1.176922 -0.019631 0
2.000000 -0.000000 0
2.029308 0.335892 0
0.733960 -0.202486 0
2.082606 0.883742 0
1.189492 0.477804 0
2.000000 -0.000000 0
1.337854 -0.478428 0
1.714606 0.191983 0
2.000000 -0.000000 0
0.238737 -0.456068 0
2.000000 -0.000000 0
1.998384 -0.002749 0
1.089902 -0.461576 0
2.071516 -0.609978 0
0.410425 -0.013282 0
2.000000 -0.000000 0
1.104385 0.467719 0
2.000000 -0.000000 0
1.986578 0.192729 0
0.613307 -0.227155 0
2.000000 0.000000 0
1.733687 0.034144 0
2.000000 -0.000000 0
2.012907 0.154804 0
2.000000 0.000000 0
1.207346 0.485950 0
1.787450 -0.033365 0
1.795898 -0.100526 0
1.727787 -0.320517 0
1.675409 -0.037826 0
2.000000 -0.000000 0
2.000000 -0.000000 0
2.091109 0.812164 0
1.884114 0.026958 0
1.481590 0.366246 0
1.638422 0.275398 0
2.000000 -0.000000 0
2.000000 -0.000000 0
2.067051 -0.516107 0
1.162622 0.075793 0
1.179958 -0.477243 0
1.931731 -1.599796 0
1.925651 0.077494 0
2.000000 -0.000000 0
2.000000 -0.000000 0
1.606427 -0.287938 0
1.829258 0.216838 0
2.000000 -0.000000 0
1.689183 -0.040464 0
0.714005 0.047277 0
1.406832 -0.549787 0
0.990523 -0.481472 0
2.000000 -0.000000 0
1.894199 -0.073868 0
2.071646 -0.585536 0
2.084958 -0.614201 0
0.856798 -0.373477 0
1.854416 -0.137981 0
2.000000 -0.000000 0
2.000000 0.000000 0
2.000000 0.000000 0
1.765893 -0.276971 0
1.859534 0.011157 0
2.000000 0.000000 0
2.000000 -0.000000 0
2.090629 -0.850316 0
1.486643 0.373492 0
1.272523 0.472448 0
2.000000 0.000000 0
2.012799 -0.142571 0
2.000000 0.000000 0
2.000000 0.000000 0
2.000000 0.000000 0
0.840498 -0.544844 0
0.510571 0.105297 0
1.730229 0.297179 0
2.000000 0.000000 0
2.047708 0.431789 0
1.675015 -0.005922 0
2.000000 0.000000 0
1.593988 -0.340743 0
1.637966 -0.303425 0
2.000000 -0.000000 0
1.896978 -0.003473 0
2.000000 -0.000000 0
2.000000 0.000000 0
2.000000 0.000000 0
2.062002 0.466430 0
2.000000 0.000000 0
1.426534 -0.408756 0
2.000000 -0.000000 0
2.000000 -0.000000 0
1.488243 -0.423633 0
2.000000 -0.000000 0
2.000000 0.000000 0
1.723263 0.209473 0
0.539904 -0.633888 0
2.000000 -0.000000 0
2.000000 0.000000 0
2.000000 -0.000000 0
2.000000 -0.000000 0
1.117481 -0.464727 0
2.096012 0.779094 0
2.000000 0.000000 0
2.000000 -0.000000 0
1.927683 0.075621 0
2.000000 -0.000000 0
1.044922 -0.442398 0
1.220403 0.473194 0
1.739549 -0.296278 0
2.000000 -0.000000 0
2.098246 -0.549827 0
2.000000 -0.000000 0
2.000000 -0.000000 0
1.707736 -1.132790 0
1.448356 -0.417050 0
1.683615 0.233230 0
1.894535 0.035553 0
2.000000 -0.000000 0
1.806985 -0.235624 0
2.000000 -0.000000 0
0.263715 -0.270680 0
0.952468 0.650225 0
1.034076 0.442594 0
2.095071 -0.782003 0
2.082315 0.883206 0
2.000000 0.000000 0
2.000000 -0.000000 0
2.000000 -0.000000 0
2.000000 -0.000000 0
1.672864 -0.007983 0
1.891106 0.147682 0
2.000000 -0.000000 0
1.998282 0.002451 0
0.771854 -0.259790 0
1.746017 0.301298 0
2.000000 -0.000000 0
1.993894 -0.246794 0
2.042294 0.403086 0
2.000000 -0.000000 0
1.732545 -0.302143 0
1.786116 -0.208336 0
1.860094 -0.004897 0
1.144382 0.630937 0
2.000000 0.000000 0
2.000000 -0.000000 0
2.000000 -0.000000 0
1.960006 -0.139482 0
2.000000 -0.000000 0
2.000000 -0.000000 0
1.429584 0.456559 0
1.920565 0.094446 0
1.490475 -0.423696 0
2.000000 -0.000000 0
1.955684 0.155214 0
2.073562 0.525360 0
2.000000 0.000000 0
2.000000 -0.000000 0
2.000000 -0.000000 0
1.932745 0.113156 0
1.918526 0.081619 0
2.000000 0.000000 0
2.000000 0.000000 0
2.000000 -0.000000 0
1.113296 -0.465957 0
2.000000 0.000000 0
2.000000 0.000000 0
2.053786 -1.203133 0
1.991431 -0.096188 0
2.000000 0.000000 0
0.579605 -0.624364 0
2.000000 -0.000000 0
1.967554 -0.211975 0
2.000000 -0.000000 0
2.051008 0.419327 0
2.083922 0.960970 0
1.967554 -0.211975 0
0.780695 0.419897 0
1.153340 0.470953 0
1.999946 0.000072 0
2.000000 -0.000000 0
1.578392 -0.006743 0
1.800219 -0.011488 0
2.000000 -0.000000 0
2.000000 -0.000000 0
2.000000 0.000000 0
1.572341 -0.003656 0
2.094488 0.811351 0
1.552536 -0.434364 0
2.000000 0.000000 0
1.736178 0.032617 0
2.000000 -0.000000 0
2.000000 0.000000 0
2.000000 -0.000000 0
2.000000 0.000000 0
1.112366 0.538483 0
1.893290 -0.003233 0
1.954158 -1.417514 0
2.000000 0.000000 0
1.989043 -0.214211 0
2.000000 -0.000000 0
0.497799 0.088670 0
1.901356 -0.002906 0
-0.676334 0.163889 0
0.557709 0.633859 0
2.000000 -0.000000 0
0.919278 0.650056 0
2.000000 -0.000000 0
1.741953 -0.214950 0
0.364735 -0.307962 0
2.039209 0.234467 0
2.000000 -0.000000 0
2.000000 -0.000000 0
0.796833 -0.259989 0
2.000000 -0.000000 0
1.244284 -0.471412 0
2.000000 -0.000000 0
1.267063 -0.481989 0
1.117743 0.468105 0
2.000000 0.000000 0
2.000000 0.000000 0
1.932045 0.073141 0
2.000000 0.000000 0
1.436486 0.441174 0
1.839918 -0.134892 0
1.987441 -0.336219 0
2.086534 0.927094 0
2.000000 -0.000000 0
1.082025 0.451175 0
1.998585 -0.002284 0
2.000000 -0.000000 0
1.817664 -0.138998 0
2.000000 -0.000000 0
1.528169 0.001718 0
1.115277 0.468014 0
1.732197 0.004578 0
1.862067 0.008644 0
2.033734 0.224257 0
2.000000 -0.000000 0
2.000000 -0.000000 0
2.000000 -0.000000 0
2.000000 0.000000 0
0.845504 -0.354256 0
1.770937 0.004449 0
1.825235 0.008530 0
1.090925 0.426109 0
0.901630 0.480996 0
1.364902 0.456417 0
1.997650 -0.003869 0
1.829104 0.000272 0
1.886276 0.023250 0
1.546909 -0.389676 0
1.720565 0.220925 0
1.044375 0.439795 0
1.830489 -0.056175 0
1.806099 -0.030693 0
2.000000 0.000000 0
2.060478 0.481395 0
1.934447 -0.158239 0
0.263192 -0.444680 0
1.272698 -0.460071 0
2.006449 0.061774 0
1.527195 -0.356569 0
0.813828 0.426229 0
1.861710 0.006121 0
2.094346 0.793112 0
1.851841 0.023368 0
2.000000 -0.000000 0
2.000000 0.000000 0
2.000000 0.000000 0
1.948424 0.070463 0
1.769535 0.253549 0
2.049685 0.439067 0
2.071645 -0.585537 0
1.525253 -0.001314 0
2.000000 -0.000000 0
2.000000 0.000000 0
1.763995 -0.149313 0
1.945862 -0.003216 0
2.039734 0.400267 0
2.000000 0.000000 0
2.000000 0.000000 0
1.174476 0.480821 0
2.000000 0.000000 0
0.998014 -0.466953 0
2.000000 -0.000000 0
1.411298 -0.285530 0
2.000000 -0.000000 0
2.000000 -0.000000 0
1.259136 -0.464181 0
1.915907 -0.078882 0
1.892100 -0.040714 0
2.000000 0.000000 0
2.098205 -0.729430 0
1.950199 -0.129817 0
2.000000 -0.000000 0
2.016761 -0.150016 0
2.000000 0.000000 0
0.885576 0.487633 0
2.098205 -0.729430 0
2.000000 0.000000 0
1.883405 0.097778 0
2.000000 0.000000 0
2.000000 -0.000000 0
2.083043 -0.610707 0
2.060560 0.478765 0
0.760152 -0.644518 0
2.000000 0.000000 0
0.730463 -0.487743 0
1.536984 0.374461 0
2.000000 0.000000 0
2.000000 -0.000000 0
0.652185 -0.616703 0
1.516308 -0.379798 0
2.000000 -0.000000 0
2.000000 -0.000000 0
1.297175 0.460124 0
1.976920 -1.386603 0
2.007123 0.256054 0
2.000000 0.000000 0
0.804890 -0.342508 0
1.977752 -0.160997 0
1.274552 -0.457026 0
2.000000 -0.000000 0
2.000000 0.000000 0
2.018054 -0.263476 0
0.930415 0.079891 0
1.913483 0.018822 0
1.998352 -0.002712 0
1.885412 0.024091 0
2.000000 -0.000000 0
2.000000 -0.000000 0
1.912617 0.071085 0
1.985889 -0.232578 0
0.217131 -0.513248 0
2.000000 -0.000000 0
2.000000 -0.000000 0
2.000000 -0.000000 0
1.904258 -0.080541 0
1.982776 -0.152016 0
1.999999 0.000000 0
2.000000 -0.000000 0
1.980641 0.212851 0
2.000000 0.000000 0
1.890332 -0.131663 0
1.123380 -0.491780 0
1.313189 0.470531 0
1.723797 -0.306303 0
2.056561 -1.201389 0
2.000000 -0.000000 0
0.815456 0.416178 0
2.000000 0.000000 0
1.691578 0.240658 0
1.941817 0.111628 0
2.000000 0.000000 0
1.188653 0.472831 0
2.085592 0.629797 0
1.991359 0.138993 0
1.127146 0.560730 0
2.004486 0.233561 0
1.538063 0.365027 0
1.760785 0.003731 0
2.000000 -0.000000 0
1.739001 0.014081 0
1.263783 0.482752 0
2.000000 0.000000 0
2.000000 0.000000 0
1.934583 -0.123524 0
1.788601 0.241400 0
1.955484 -0.090133 0
0.591757 -0.347083 0
0.589690 0.231853 0
2.050249 0.404115 0
2.000000 0.000000 0
1.970831 1.283106 0
2.000000 -0.000000 0
2.000000 0.000000 0
2.000000 -0.000000 0
1.816862 -0.099654 0
2.000000 -0.000000 0
2.000000 0.000000 0
1.896843 0.036930 0
2.017612 0.092404 0
1.998639 -0.293737 0
-0.549448 0.146226 0
1.048330 0.445864 0
2.000000 0.000000 0
2.000000 -0.000000 0
2.000000 0.000000 0
2.000000 -0.000000 0
2.000000 0.000000 0
2.000000 0.000000 0
2.000000 0.000000 0
1.730898 -0.186482 0
2.000000 0.000000 0
2.000000 0.000000 0
1.943898 -0.050109 0
2.000000 0.000000 0
2.078249 -1.056464 0
2.000000 -0.000000 0
2.000000 0.000000 0
0.980140 -0.423444 0
1.710197 -0.317793 0
1.674607 0.291509 0
1.781904 0.275022 0
2.000000 -0.000000 0
1.973450 -0.120967 0
0.460231 -0.618666 0
1.792769 -0.082110 0
0.764692 -0.399037 0
1.913533 0.070065 0
1.263195 -0.488372 0
0.449734 -0.362686 0
2.099673 -0.548923 0
1.883383 0.142770 0
1.945312 0.869081 0
2.000000 0.000000 0
2.000000 -0.000000 0
2.000000 -0.000000 0
1.593526 -0.337435 0
1.650754 -0.367471 0
2.000000 -0.000000 0
0.792567 -0.300839 0
2.039426 0.358663 0
2.020852 0.227819 0
1.999998 0.000002 0
2.000000 -0.000000 0
2.000000 -0.000000 0
2.000000 -0.000000 0
1.741640 0.011920 0
2.000000 -0.000000 0
2.000000 -0.000000 0
2.092002 -0.697305 0
2.000000 0.000000 0
1.896415 -0.002900 0
1.987427 -0.197049 0
1.998639 -0.293737 0
2.000000 0.000000 0
2.000000 -0.000000 0
1.706244 0.004632 0
1.560258 -0.419844 0
1.605583 0.007398 0
1.954432 -0.077957 0
1.999462 0.063605 0
1.892355 0.034746 0
0.584993 -0.487934 0
2.000000 0.000000 0
1.229447 0.473143 0
1.970920 1.367947 0
2.000000 -0.000000 0
1.506535 -0.365273 0
2.000000 0.000000 0
2.048168 -1.074944 0
2.000000 0.000000 0
2.004406 -0.111965 0
2.088504 0.795563 0
0.798444 0.031549 0
1.718984 0.204730 0
0.723748 -0.493099 0
1.201246 -0.494626 0
2.000000 -0.000000 0
1.915938 -0.011433 0
2.000000 -0.000000 0
1.845649 0.062051 0
1.715128 -0.203455 0
1.943365 0.110847 0
1.065428 0.421299 0
2.019754 0.282643 0
2.000000 0.000000 0
0.753849 -0.376597 0
2.000000 -0.000000 0
2.000000 0.000000 0
1.933658 0.072662 0
2.000000 -0.000000 0
2.000000 -0.000000 0
0.224434 -0.441782 0
2.000000 -0.000000 0
2.000000 0.000000 0
2.047541 -0.399558 0
2.000000 0.000000 0
2.000000 0.000000 0
0.690243 -0.389261 0
1.933338 0.085828 0
2.000000 0.000000 0
2.000000 0.000000 0
2.000000 -0.000000 0
1.205851 -0.480069 0
2.000000 -0.000000 0
0.793205 -0.306903 0
0.747115 -0.365668 0
1.954516 -0.006816 0
2.000000 0.000000 0
1.736798 0.000799 0
1.622379 0.100228 0
0.640070 -0.357489 0
2.007981 -0.329665 0
2.052691 0.438753 0
1.870192 0.001125 0
1.131518 -0.488688 0
1.978550 0.144362 0
1.891737 -0.040512 0
2.062717 0.428943 0
2.000000 -0.000000 0
1.773081 0.139325 0
2.000000 -0.000000 0
1.183232 0.565740 0
2.000000 0.000000 0
2.000000 -0.000000 0
1.861961 -1.601732 0
1.782104 0.259187 0
2.000000 -0.000000 0
1.435945 0.437286 0
1.236543 0.482306 0
2.000000 0.000000 0
2.000000 -0.000000 0
2.000000 -0.000000 0
1.849595 -0.147493 0
1.136459 0.476799 0
2.000000 0.000000 0
1.977471 1.279369 0
2.000000 0.000000 0
1.431879 0.004335 0
2.095337 -0.781871 0
2.000000 -0.000000 0
1.913320 -0.074728 0
2.000000 -0.000000 0
2.050795 1.035558 0
2.000000 0.000000 0
1.719362 0.005010 0
1.191721 0.478684 0
0.677473 -0.394725 0
1.909633 0.131513 0
2.000000 -0.000000 0
1.941541 -0.051248 0
2.015778 -0.295763 0
2.000000 -0.000000 0
2.000000 0.000000 0
1.108411 0.467937 0
0.166019 -0.101220 0
2.000000 -0.000000 0
2.040808 0.376929 0
2.000000 -0.000000 0
2.000000 -0.000000 0
1.955678 1.344716 0
2.000000 0.000000 0
1.925966 -0.102102 0
2.000000 0.000000 0
1.255096 0.477514 0
1.766497 0.160991 0
1.829277 0.064230 0
1.970122 0.044188 0
2.000000 0.000000 0
2.000000 0.000000 0
1.943112 0.093786 0
2.000000 -0.000000 0
1.607988 -0.289441 0
1.645509 0.271597 0
2.000000 -0.000000 0
2.000000 0.000000 0
1.987278 0.192018 0
2.000000 -0.000000 0
2.000000 -0.000000 0
0.988055 -0.427398 0
2.000000 -0.000000 0
1.753625 0.173726 0
1.179131 -0.475229 0
2.000000 0.000000 0
1.998461 0.040279 0
2.087584 0.742152 0
1.803526 -0.009159 0
1.491970 -0.494576 0
1.755790 0.265454 0
0.580163 0.217987 0
2.091121 0.831170 0
2.000000 0.000000 0
2.017749 0.219173 0
2.040679 0.358262 0
1.759842 -0.144089 0
2.000000 0.000000 0
2.000000 0.000000 0
1.999993 0.000010 0
2.000000 0.000000 0
2.077099 -0.490635 0
2.000000 -0.000000 0
2.000000 0.000000 0
2.000000 0.000000 0
1.977985 -0.200361 0
1.709146 -0.323300 0
2.000000 0.000000 0
2.000000 0.000000 0
2.059743 0.469828 0
0.834537 0.420387 0
1.849789 -0.051060 0
2.000000 -0.000000 0
2.000000 -0.000000 0
2.000000 0.000000 0
1.780519 0.182441 0
1.881660 -0.009969 0
2.085374 -0.964994 0
2.000000 0.000000 0
2.094590 0.830433 0
1.880218 -0.001923 0
2.000000 0.000000 0
2.000000 0.000000 0
2.000000 -0.000000 0
2.000000 0.000000 0
1.650528 -0.320584 0
2.000000 0.000000 0
2.000000 0.000000 0
1.847619 0.151818 0
1.816010 -0.147716 0
1.423488 -0.402659 0
2.021364 -0.377734 0
1.017729 -0.510859 0
2.000000 0.000000 0
2.000000 -0.000000 0
2.000000 -0.000000 0
2.000000 -0.000000 0
2.000000 0.000000 0
1.784125 0.002714 0
2.000000 -0.000000 0
1.170261 0.471552 0
1.820699 -0.005847 0
1.717578 0.294276 0
2.000000 0.000000 0
2.000000 -0.000000 0
1.978871 0.140519 0
1.761796 -0.141898 0
1.999181 -0.001330 0
1.775254 0.272312 0
1.619619 0.000642 0
0.565804 0.286009 0
1.489911 0.377499 0
2.000000 -0.000000 0
1.859456 0.033436 0
1.971860 -0.201513 0
2.037513 0.370145 0
1.571172 -0.369662 0
2.000000 -0.000000 0
1.828168 0.068428 0
2.000000 0.000000 0
1.540366 -0.374965 0
1.988712 0.184192 0
1.366132 0.458048 0
2.000000 -0.000000 0
2.000000 0.000000 0
2.000000 0.000000 0
2.000000 -0.000000 0
1.216055 -0.468742 0
2.000000 0.000000 0
2.003771 1.293454 0
2.000000 0.000000 0
1.642719 0.245844 0
2.000002 -0.000000 0
2.000001 0.000000 0
2.000000 0.000000 0
1.892934 0.525700 0
2.012112 0.296084 0
1.805126 0.165915 0
1.846058 0.080138 0
2.037460 -0.998337 0
2.061997 0.429770 0
1.892182 -0.001829 0
2.000000 -0.000000 0
0.561655 0.306177 0
2.000000 -0.000000 0
2.062179 0.469044 0
1.366997 0.454749 0
2.000000 -0.000000 0
1.750627 0.180267 0
1.999980 0.000024 0
2.000000 0.000000 0
1.428031 0.006528 0
1.952836 -0.007187 0
1.936390 0.111743 0
2.000000 0.000000 0
1.211543 0.610318 0
1.650848 -0.320950 0
1.849612 -0.147508 0
2.000000 0.000000 0
1.197977 0.480090 0
1.489530 -0.379058 0
1.613889 -0.289909 0
1.246594 0.470221 0
2.000000 0.000000 0
1.767519 -0.229684 0
2.080687 -0.600926 0
2.000000 0.000000 0
2.080687 -0.600926 0
2.060172 -0.467653 0
1.493041 0.381831 0